 Entering Gaussian System, Link 0=g16
 Initial command:
 /lustre/home/2201110454/g16/l1.exe "/lustre/home/2201110454/g16tmp/Gau-2812727.inp" -scrdir="/lustre/home/2201110454/g16tmp/"
 Default is to use a total of  64 processors:
                               64 via shared-memory
                                1 via Linda
 Entering Link 1 = /lustre/home/2201110454/g16/l1.exe PID=   2812728.
  
 Copyright (c) 1988-2021, Gaussian, Inc.  All Rights Reserved.
  
 This is part of the Gaussian(R) 16 program.  It is based on
 the Gaussian(R) 09 system (copyright 2009, Gaussian, Inc.),
 the Gaussian(R) 03 system (copyright 2003, Gaussian, Inc.),
 the Gaussian(R) 98 system (copyright 1998, Gaussian, Inc.),
 the Gaussian(R) 94 system (copyright 1995, Gaussian, Inc.),
 the Gaussian 92(TM) system (copyright 1992, Gaussian, Inc.),
 the Gaussian 90(TM) system (copyright 1990, Gaussian, Inc.),
 the Gaussian 88(TM) system (copyright 1988, Gaussian, Inc.),
 the Gaussian 86(TM) system (copyright 1986, Carnegie Mellon
 University), and the Gaussian 82(TM) system (copyright 1983,
 Carnegie Mellon University). Gaussian is a federally registered
 trademark of Gaussian, Inc.
  
 This software contains proprietary and confidential information,
 including trade secrets, belonging to Gaussian, Inc.
  
 This software is provided under written license and may be
 used, copied, transmitted, or stored only in accord with that
 written license.
  
 The following legend is applicable only to US Government
 contracts under FAR:
  
                    RESTRICTED RIGHTS LEGEND
  
 Use, reproduction and disclosure by the US Government is
 subject to restrictions as set forth in subparagraphs (a)
 and (c) of the Commercial Computer Software - Restricted
 Rights clause in FAR 52.227-19.
  
 Gaussian, Inc.
 340 Quinnipiac St., Bldg. 40, Wallingford CT 06492
  
  
 ---------------------------------------------------------------
 Warning -- This program may not be used in any manner that
 competes with the business of Gaussian, Inc. or will provide
 assistance to any competitor of Gaussian, Inc.  The licensee
 of this program is prohibited from giving any competitor of
 Gaussian, Inc. access to this program.  By using this program,
 the user acknowledges that Gaussian, Inc. is engaged in the
 business of creating and licensing software in the field of
 computational chemistry and represents and warrants to the
 licensee that it is not a competitor of Gaussian, Inc. and that
 it will not use this program in any manner prohibited above.
 ---------------------------------------------------------------
  

 Cite this work as:
 Gaussian 16, Revision C.02,
 M. J. Frisch, G. W. Trucks, H. B. Schlegel, G. E. Scuseria, 
 M. A. Robb, J. R. Cheeseman, G. Scalmani, V. Barone, 
 G. A. Petersson, H. Nakatsuji, X. Li, M. Caricato, A. V. Marenich, 
 J. Bloino, B. G. Janesko, R. Gomperts, B. Mennucci, H. P. Hratchian, 
 J. V. Ortiz, A. F. Izmaylov, J. L. Sonnenberg, D. Williams-Young, 
 F. Ding, F. Lipparini, F. Egidi, J. Goings, B. Peng, A. Petrone, 
 T. Henderson, D. Ranasinghe, V. G. Zakrzewski, J. Gao, N. Rega, 
 G. Zheng, W. Liang, M. Hada, M. Ehara, K. Toyota, R. Fukuda, 
 J. Hasegawa, M. Ishida, T. Nakajima, Y. Honda, O. Kitao, H. Nakai, 
 T. Vreven, K. Throssell, J. A. Montgomery, Jr., J. E. Peralta, 
 F. Ogliaro, M. J. Bearpark, J. J. Heyd, E. N. Brothers, K. N. Kudin, 
 V. N. Staroverov, T. A. Keith, R. Kobayashi, J. Normand, 
 K. Raghavachari, A. P. Rendell, J. C. Burant, S. S. Iyengar, 
 J. Tomasi, M. Cossi, J. M. Millam, M. Klene, C. Adamo, R. Cammi, 
 J. W. Ochterski, R. L. Martin, K. Morokuma, O. Farkas, 
 J. B. Foresman, and D. J. Fox, Gaussian, Inc., Wallingford CT, 2019.
 
 ******************************************
 Gaussian 16:  ES64L-G16RevC.02  7-Dec-2021
                24-Jun-2024 
 ******************************************
 ----------------------------
 # opt freq m062x 6-31G(d) 5d
 ----------------------------
 1/18=20,19=15,26=3,38=1/1,3;
 2/9=110,12=2,17=6,18=5,40=1/2;
 3/5=1,6=6,7=1,8=1,11=2,25=1,30=1,71=1,74=-55/1,2,3;
 4//1;
 5/5=2,38=5/2;
 6/7=2,8=2,9=2,10=2,28=1/1;
 7//1,2,3,16;
 1/18=20,19=15,26=3/3(2);
 2/9=110/2;
 99//99;
 2/9=110/2;
 3/5=1,6=6,7=1,8=1,11=2,25=1,30=1,71=1,74=-55/1,2,3;
 4/5=5,16=3,69=1/1;
 5/5=2,38=5/2;
 7//1,2,3,16;
 1/18=20,19=15,26=3/3(-5);
 2/9=110/2;
 6/7=2,8=2,9=2,10=2,19=2,28=1/1;
 99/9=1/99;
 ----------
 [No Title]
 ----------
 Symbolic Z-matrix:
 Charge =  0 Multiplicity = 1
 C                    -0.00075  -1.64835  -0.13005 
 C                     0.31091  -2.59278   0.77571 
 C                     0.29003  -2.32913   2.08844 
 C                    -0.07165  -1.11444   2.5164 
 C                    -0.43395  -0.14927   1.65079 
 C                    -0.37306  -0.42839   0.32887 
 S                    -0.66269   0.87909  -0.92201 
 N                    -0.82285   0.97969   2.28429 
 C                    -1.63524   2.02379   1.95921 
 C                    -1.50347   3.22547   2.89544 
 O                    -2.427     1.99667   1.05229 
 N                    -0.09377   3.56497   3.14658 
 C                    -2.24222   4.47558   2.39292 
 C                     0.67899   2.92624   4.07774 
 C                     2.09678   3.45488   4.17004 
 O                     0.27067   2.01714   4.75605 
 N                     0.0564   -1.85545  -1.46611 
 C                     0.21796  -2.97903  -2.22754 
 C                     0.33431  -2.7221   -3.73318 
 O                     0.26319  -4.09985  -1.78678 
 N                    -0.4166   -1.53961  -4.18073 
 C                    -0.08052  -3.93025  -4.58866 
 C                     0.06116  -0.26643  -4.04236 
 C                    -0.83803   0.80126  -4.63268 
 O                     1.10235  -0.02726  -3.48391 
 H                     0.6426   -3.60204   0.49759 
 H                     0.57238  -3.10826   2.8171 
 H                    -0.09078  -0.93506   3.60606 
 H                    -1.95793   1.24512  -0.92937 
 H                    -0.54688   0.93686   3.25542 
 H                    -1.99288   2.9252    3.85474 
 H                     0.34316   4.28016   2.5651 
 H                    -1.83179   4.8123    1.41337 
 H                    -2.13125   5.31881   3.11302 
 H                    -3.33348   4.28944   2.26756 
 H                     2.61442   3.33443   3.19136 
 H                     2.08737   4.53387   4.44533 
 H                     2.68145   2.90468   4.94147 
 H                    -0.07367  -0.98136  -1.95659 
 H                     1.42407  -2.55722  -3.92365 
 H                    -1.34225  -1.67155  -4.58803 
 H                     0.0279   -3.70415  -5.67451 
 H                     0.54402  -4.82825  -4.37808 
 H                    -1.14637  -4.19675  -4.4037 
 H                    -0.9487    0.64539  -5.72968 
 H                    -1.84461   0.76208  -4.15784 
 H                    -0.41544   1.81779  -4.46607 
 

 GradGradGradGradGradGradGradGradGradGradGradGradGradGradGradGradGradGrad
 Berny optimization.
 Initialization pass.
                           ----------------------------
                           !    Initial Parameters    !
                           ! (Angstroms and Degrees)  !
 --------------------------                            --------------------------
 ! Name  Definition              Value          Derivative Info.                !
 --------------------------------------------------------------------------------
 ! R1    R(1,2)                  1.3452         estimate D2E/DX2                !
 ! R2    R(1,6)                  1.3556         estimate D2E/DX2                !
 ! R3    R(1,17)                 1.3532         estimate D2E/DX2                !
 ! R4    R(2,3)                  1.3391         estimate D2E/DX2                !
 ! R5    R(2,26)                 1.0982         estimate D2E/DX2                !
 ! R6    R(3,4)                  1.3377         estimate D2E/DX2                !
 ! R7    R(3,27)                 1.1035         estimate D2E/DX2                !
 ! R8    R(4,5)                  1.3461         estimate D2E/DX2                !
 ! R9    R(4,28)                 1.1045         estimate D2E/DX2                !
 ! R10   R(5,6)                  1.3524         estimate D2E/DX2                !
 ! R11   R(5,8)                  1.3517         estimate D2E/DX2                !
 ! R12   R(6,7)                  1.8325         estimate D2E/DX2                !
 ! R13   R(7,29)                 1.346          estimate D2E/DX2                !
 ! R14   R(8,9)                  1.3623         estimate D2E/DX2                !
 ! R15   R(8,30)                 1.0105         estimate D2E/DX2                !
 ! R16   R(9,10)                 1.529          estimate D2E/DX2                !
 ! R17   R(9,11)                 1.2042         estimate D2E/DX2                !
 ! R18   R(10,12)                1.4716         estimate D2E/DX2                !
 ! R19   R(10,13)                1.5366         estimate D2E/DX2                !
 ! R20   R(10,31)                1.118          estimate D2E/DX2                !
 ! R21   R(12,14)                1.3683         estimate D2E/DX2                !
 ! R22   R(12,32)                1.0201         estimate D2E/DX2                !
 ! R23   R(13,33)                1.1142         estimate D2E/DX2                !
 ! R24   R(13,34)                1.1144         estimate D2E/DX2                !
 ! R25   R(13,35)                1.1141         estimate D2E/DX2                !
 ! R26   R(14,15)                1.5159         estimate D2E/DX2                !
 ! R27   R(14,16)                1.2055         estimate D2E/DX2                !
 ! R28   R(15,36)                1.1137         estimate D2E/DX2                !
 ! R29   R(15,37)                1.1136         estimate D2E/DX2                !
 ! R30   R(15,38)                1.1134         estimate D2E/DX2                !
 ! R31   R(17,18)                1.3669         estimate D2E/DX2                !
 ! R32   R(17,39)                1.0107         estimate D2E/DX2                !
 ! R33   R(18,19)                1.5318         estimate D2E/DX2                !
 ! R34   R(18,20)                1.2052         estimate D2E/DX2                !
 ! R35   R(19,21)                1.4705         estimate D2E/DX2                !
 ! R36   R(19,22)                1.5374         estimate D2E/DX2                !
 ! R37   R(19,40)                1.1185         estimate D2E/DX2                !
 ! R38   R(21,23)                1.3669         estimate D2E/DX2                !
 ! R39   R(21,41)                1.0199         estimate D2E/DX2                !
 ! R40   R(22,42)                1.1144         estimate D2E/DX2                !
 ! R41   R(22,43)                1.1139         estimate D2E/DX2                !
 ! R42   R(22,44)                1.1141         estimate D2E/DX2                !
 ! R43   R(23,24)                1.5156         estimate D2E/DX2                !
 ! R44   R(23,25)                1.2055         estimate D2E/DX2                !
 ! R45   R(24,45)                1.1135         estimate D2E/DX2                !
 ! R46   R(24,46)                1.1136         estimate D2E/DX2                !
 ! R47   R(24,47)                1.1134         estimate D2E/DX2                !
 ! A1    A(2,1,6)              117.875          estimate D2E/DX2                !
 ! A2    A(2,1,17)             123.2005         estimate D2E/DX2                !
 ! A3    A(6,1,17)             118.9193         estimate D2E/DX2                !
 ! A4    A(1,2,3)              121.2144         estimate D2E/DX2                !
 ! A5    A(1,2,26)             123.0043         estimate D2E/DX2                !
 ! A6    A(3,2,26)             115.7161         estimate D2E/DX2                !
 ! A7    A(2,3,4)              119.7757         estimate D2E/DX2                !
 ! A8    A(2,3,27)             120.2861         estimate D2E/DX2                !
 ! A9    A(4,3,27)             119.938          estimate D2E/DX2                !
 ! A10   A(3,4,5)              121.2059         estimate D2E/DX2                !
 ! A11   A(3,4,28)             117.8903         estimate D2E/DX2                !
 ! A12   A(5,4,28)             120.8829         estimate D2E/DX2                !
 ! A13   A(4,5,6)              117.9324         estimate D2E/DX2                !
 ! A14   A(4,5,8)              112.0187         estimate D2E/DX2                !
 ! A15   A(6,5,8)              130.0468         estimate D2E/DX2                !
 ! A16   A(1,6,5)              121.9383         estimate D2E/DX2                !
 ! A17   A(1,6,7)              117.0292         estimate D2E/DX2                !
 ! A18   A(5,6,7)              120.8529         estimate D2E/DX2                !
 ! A19   A(6,7,29)             110.4787         estimate D2E/DX2                !
 ! A20   A(5,8,9)              134.417          estimate D2E/DX2                !
 ! A21   A(5,8,30)             109.6598         estimate D2E/DX2                !
 ! A22   A(9,8,30)             115.1305         estimate D2E/DX2                !
 ! A23   A(8,9,10)             113.8815         estimate D2E/DX2                !
 ! A24   A(8,9,11)             123.6795         estimate D2E/DX2                !
 ! A25   A(10,9,11)            122.3782         estimate D2E/DX2                !
 ! A26   A(9,10,12)            111.6147         estimate D2E/DX2                !
 ! A27   A(9,10,13)            113.4356         estimate D2E/DX2                !
 ! A28   A(9,10,31)            106.0565         estimate D2E/DX2                !
 ! A29   A(12,10,13)           109.1886         estimate D2E/DX2                !
 ! A30   A(12,10,31)           109.5644         estimate D2E/DX2                !
 ! A31   A(13,10,31)           106.7771         estimate D2E/DX2                !
 ! A32   A(10,12,14)           123.3297         estimate D2E/DX2                !
 ! A33   A(10,12,32)           118.3455         estimate D2E/DX2                !
 ! A34   A(14,12,32)           118.2502         estimate D2E/DX2                !
 ! A35   A(10,13,33)           110.8722         estimate D2E/DX2                !
 ! A36   A(10,13,34)           110.8797         estimate D2E/DX2                !
 ! A37   A(10,13,35)           111.8261         estimate D2E/DX2                !
 ! A38   A(33,13,34)           107.6226         estimate D2E/DX2                !
 ! A39   A(33,13,35)           108.2035         estimate D2E/DX2                !
 ! A40   A(34,13,35)           107.258          estimate D2E/DX2                !
 ! A41   A(12,14,15)           114.0064         estimate D2E/DX2                !
 ! A42   A(12,14,16)           122.9329         estimate D2E/DX2                !
 ! A43   A(15,14,16)           123.0581         estimate D2E/DX2                !
 ! A44   A(14,15,36)           110.0898         estimate D2E/DX2                !
 ! A45   A(14,15,37)           110.1838         estimate D2E/DX2                !
 ! A46   A(14,15,38)           111.1602         estimate D2E/DX2                !
 ! A47   A(36,15,37)           109.0243         estimate D2E/DX2                !
 ! A48   A(36,15,38)           108.14           estimate D2E/DX2                !
 ! A49   A(37,15,38)           108.1774         estimate D2E/DX2                !
 ! A50   A(1,17,18)            132.9055         estimate D2E/DX2                !
 ! A51   A(1,17,39)            109.9593         estimate D2E/DX2                !
 ! A52   A(18,17,39)           117.1146         estimate D2E/DX2                !
 ! A53   A(17,18,19)           114.749          estimate D2E/DX2                !
 ! A54   A(17,18,20)           124.4133         estimate D2E/DX2                !
 ! A55   A(19,18,20)           120.8366         estimate D2E/DX2                !
 ! A56   A(18,19,21)           113.2805         estimate D2E/DX2                !
 ! A57   A(18,19,22)           113.2433         estimate D2E/DX2                !
 ! A58   A(18,19,40)           105.4328         estimate D2E/DX2                !
 ! A59   A(21,19,22)           108.9525         estimate D2E/DX2                !
 ! A60   A(21,19,40)           109.0957         estimate D2E/DX2                !
 ! A61   A(22,19,40)           106.4979         estimate D2E/DX2                !
 ! A62   A(19,21,23)           122.664          estimate D2E/DX2                !
 ! A63   A(19,21,41)           118.7497         estimate D2E/DX2                !
 ! A64   A(23,21,41)           118.5651         estimate D2E/DX2                !
 ! A65   A(19,22,42)           110.8854         estimate D2E/DX2                !
 ! A66   A(19,22,43)           112.1512         estimate D2E/DX2                !
 ! A67   A(19,22,44)           110.7156         estimate D2E/DX2                !
 ! A68   A(42,22,43)           107.0502         estimate D2E/DX2                !
 ! A69   A(42,22,44)           107.6594         estimate D2E/DX2                !
 ! A70   A(43,22,44)           108.1892         estimate D2E/DX2                !
 ! A71   A(21,23,24)           114.166          estimate D2E/DX2                !
 ! A72   A(21,23,25)           122.2483         estimate D2E/DX2                !
 ! A73   A(24,23,25)           123.581          estimate D2E/DX2                !
 ! A74   A(23,24,45)           110.1248         estimate D2E/DX2                !
 ! A75   A(23,24,46)           110.2059         estimate D2E/DX2                !
 ! A76   A(23,24,47)           111.0825         estimate D2E/DX2                !
 ! A77   A(45,24,46)           108.9835         estimate D2E/DX2                !
 ! A78   A(45,24,47)           108.2366         estimate D2E/DX2                !
 ! A79   A(46,24,47)           108.1423         estimate D2E/DX2                !
 ! D1    D(6,1,2,3)             -1.7684         estimate D2E/DX2                !
 ! D2    D(6,1,2,26)          -178.7055         estimate D2E/DX2                !
 ! D3    D(17,1,2,3)           177.3946         estimate D2E/DX2                !
 ! D4    D(17,1,2,26)            0.4575         estimate D2E/DX2                !
 ! D5    D(2,1,6,5)              0.0796         estimate D2E/DX2                !
 ! D6    D(2,1,6,7)            175.2454         estimate D2E/DX2                !
 ! D7    D(17,1,6,5)          -179.1203         estimate D2E/DX2                !
 ! D8    D(17,1,6,7)            -3.9545         estimate D2E/DX2                !
 ! D9    D(2,1,17,18)           10.7256         estimate D2E/DX2                !
 ! D10   D(2,1,17,39)         -171.0202         estimate D2E/DX2                !
 ! D11   D(6,1,17,18)         -170.1197         estimate D2E/DX2                !
 ! D12   D(6,1,17,39)            8.1346         estimate D2E/DX2                !
 ! D13   D(1,2,3,4)              1.3316         estimate D2E/DX2                !
 ! D14   D(1,2,3,27)          -178.4976         estimate D2E/DX2                !
 ! D15   D(26,2,3,4)           178.4808         estimate D2E/DX2                !
 ! D16   D(26,2,3,27)           -1.3485         estimate D2E/DX2                !
 ! D17   D(2,3,4,5)              0.8523         estimate D2E/DX2                !
 ! D18   D(2,3,4,28)           179.2053         estimate D2E/DX2                !
 ! D19   D(27,3,4,5)          -179.3178         estimate D2E/DX2                !
 ! D20   D(27,3,4,28)           -0.9648         estimate D2E/DX2                !
 ! D21   D(3,4,5,6)             -2.4549         estimate D2E/DX2                !
 ! D22   D(3,4,5,8)            177.0685         estimate D2E/DX2                !
 ! D23   D(28,4,5,6)           179.2412         estimate D2E/DX2                !
 ! D24   D(28,4,5,8)            -1.2353         estimate D2E/DX2                !
 ! D25   D(4,5,6,1)              1.988          estimate D2E/DX2                !
 ! D26   D(4,5,6,7)           -172.9956         estimate D2E/DX2                !
 ! D27   D(8,5,6,1)           -177.4349         estimate D2E/DX2                !
 ! D28   D(8,5,6,7)              7.5815         estimate D2E/DX2                !
 ! D29   D(4,5,8,9)           -155.1967         estimate D2E/DX2                !
 ! D30   D(4,5,8,30)            13.7475         estimate D2E/DX2                !
 ! D31   D(6,5,8,9)             24.2533         estimate D2E/DX2                !
 ! D32   D(6,5,8,30)          -166.8025         estimate D2E/DX2                !
 ! D33   D(1,6,7,29)           114.6618         estimate D2E/DX2                !
 ! D34   D(5,6,7,29)           -70.1167         estimate D2E/DX2                !
 ! D35   D(5,8,9,10)          -166.5613         estimate D2E/DX2                !
 ! D36   D(5,8,9,11)            16.2183         estimate D2E/DX2                !
 ! D37   D(30,8,9,10)           24.9445         estimate D2E/DX2                !
 ! D38   D(30,8,9,11)         -152.2759         estimate D2E/DX2                !
 ! D39   D(8,9,10,12)           46.5796         estimate D2E/DX2                !
 ! D40   D(8,9,10,13)          170.4336         estimate D2E/DX2                !
 ! D41   D(8,9,10,31)          -72.6858         estimate D2E/DX2                !
 ! D42   D(11,9,10,12)        -136.1593         estimate D2E/DX2                !
 ! D43   D(11,9,10,13)         -12.3052         estimate D2E/DX2                !
 ! D44   D(11,9,10,31)         104.5754         estimate D2E/DX2                !
 ! D45   D(9,10,12,14)         -82.3126         estimate D2E/DX2                !
 ! D46   D(9,10,12,32)          94.4867         estimate D2E/DX2                !
 ! D47   D(13,10,12,14)        151.4695         estimate D2E/DX2                !
 ! D48   D(13,10,12,32)        -31.7312         estimate D2E/DX2                !
 ! D49   D(31,10,12,14)         34.8518         estimate D2E/DX2                !
 ! D50   D(31,10,12,32)       -148.3488         estimate D2E/DX2                !
 ! D51   D(9,10,13,33)         -61.3709         estimate D2E/DX2                !
 ! D52   D(9,10,13,34)         179.1417         estimate D2E/DX2                !
 ! D53   D(9,10,13,35)          59.4839         estimate D2E/DX2                !
 ! D54   D(12,10,13,33)         63.7957         estimate D2E/DX2                !
 ! D55   D(12,10,13,34)        -55.6918         estimate D2E/DX2                !
 ! D56   D(12,10,13,35)       -175.3496         estimate D2E/DX2                !
 ! D57   D(31,10,13,33)       -177.8288         estimate D2E/DX2                !
 ! D58   D(31,10,13,34)         62.6838         estimate D2E/DX2                !
 ! D59   D(31,10,13,35)        -56.974          estimate D2E/DX2                !
 ! D60   D(10,12,14,15)       -179.4339         estimate D2E/DX2                !
 ! D61   D(10,12,14,16)          1.1314         estimate D2E/DX2                !
 ! D62   D(32,12,14,15)          3.7639         estimate D2E/DX2                !
 ! D63   D(32,12,14,16)       -175.6708         estimate D2E/DX2                !
 ! D64   D(12,14,15,36)        -60.3211         estimate D2E/DX2                !
 ! D65   D(12,14,15,37)         59.9603         estimate D2E/DX2                !
 ! D66   D(12,14,15,38)        179.8739         estimate D2E/DX2                !
 ! D67   D(16,14,15,36)        119.1127         estimate D2E/DX2                !
 ! D68   D(16,14,15,37)       -120.6058         estimate D2E/DX2                !
 ! D69   D(16,14,15,38)         -0.6923         estimate D2E/DX2                !
 ! D70   D(1,17,18,19)        -175.3046         estimate D2E/DX2                !
 ! D71   D(1,17,18,20)           5.0603         estimate D2E/DX2                !
 ! D72   D(39,17,18,19)          6.539          estimate D2E/DX2                !
 ! D73   D(39,17,18,20)       -173.0961         estimate D2E/DX2                !
 ! D74   D(17,18,19,21)        -30.7024         estimate D2E/DX2                !
 ! D75   D(17,18,19,22)       -155.4247         estimate D2E/DX2                !
 ! D76   D(17,18,19,40)         88.5229         estimate D2E/DX2                !
 ! D77   D(20,18,19,21)        148.947          estimate D2E/DX2                !
 ! D78   D(20,18,19,22)         24.2247         estimate D2E/DX2                !
 ! D79   D(20,18,19,40)        -91.8277         estimate D2E/DX2                !
 ! D80   D(18,19,21,23)         80.3197         estimate D2E/DX2                !
 ! D81   D(18,19,21,41)        -97.9797         estimate D2E/DX2                !
 ! D82   D(22,19,21,23)       -152.6675         estimate D2E/DX2                !
 ! D83   D(22,19,21,41)         29.0331         estimate D2E/DX2                !
 ! D84   D(40,19,21,23)        -36.7787         estimate D2E/DX2                !
 ! D85   D(40,19,21,41)        144.9219         estimate D2E/DX2                !
 ! D86   D(18,19,22,42)       -179.4806         estimate D2E/DX2                !
 ! D87   D(18,19,22,43)        -59.8652         estimate D2E/DX2                !
 ! D88   D(18,19,22,44)         61.0844         estimate D2E/DX2                !
 ! D89   D(21,19,22,42)         53.4853         estimate D2E/DX2                !
 ! D90   D(21,19,22,43)        173.1007         estimate D2E/DX2                !
 ! D91   D(21,19,22,44)        -65.9497         estimate D2E/DX2                !
 ! D92   D(40,19,22,42)        -64.0604         estimate D2E/DX2                !
 ! D93   D(40,19,22,43)         55.555          estimate D2E/DX2                !
 ! D94   D(40,19,22,44)        176.5046         estimate D2E/DX2                !
 ! D95   D(19,21,23,24)        177.0356         estimate D2E/DX2                !
 ! D96   D(19,21,23,25)         -3.7237         estimate D2E/DX2                !
 ! D97   D(41,21,23,24)         -4.662          estimate D2E/DX2                !
 ! D98   D(41,21,23,25)        174.5787         estimate D2E/DX2                !
 ! D99   D(21,23,24,45)        -61.7325         estimate D2E/DX2                !
 ! D100  D(21,23,24,46)         58.5347         estimate D2E/DX2                !
 ! D101  D(21,23,24,47)        178.3687         estimate D2E/DX2                !
 ! D102  D(25,23,24,45)        119.0383         estimate D2E/DX2                !
 ! D103  D(25,23,24,46)       -120.6945         estimate D2E/DX2                !
 ! D104  D(25,23,24,47)         -0.8605         estimate D2E/DX2                !
 --------------------------------------------------------------------------------
 Trust Radius=3.00D-01 FncErr=1.00D-07 GrdErr=1.00D-06 EigMax=2.50D+02 EigMin=1.00D-04
 Number of steps in this run=    240 maximum allowed number of steps=    282.
 GradGradGradGradGradGradGradGradGradGradGradGradGradGradGradGradGradGrad

                          Input orientation:                          
 ---------------------------------------------------------------------
 Center     Atomic      Atomic             Coordinates (Angstroms)
 Number     Number       Type             X           Y           Z
 ---------------------------------------------------------------------
      1          6           0       -0.000748   -1.648351   -0.130045
      2          6           0        0.310905   -2.592775    0.775705
      3          6           0        0.290029   -2.329134    2.088442
      4          6           0       -0.071648   -1.114439    2.516395
      5          6           0       -0.433951   -0.149270    1.650790
      6          6           0       -0.373056   -0.428385    0.328867
      7         16           0       -0.662692    0.879091   -0.922007
      8          7           0       -0.822848    0.979690    2.284286
      9          6           0       -1.635241    2.023788    1.959212
     10          6           0       -1.503468    3.225468    2.895438
     11          8           0       -2.426999    1.996665    1.052287
     12          7           0       -0.093765    3.564968    3.146579
     13          6           0       -2.242224    4.475584    2.392925
     14          6           0        0.678989    2.926239    4.077741
     15          6           0        2.096776    3.454881    4.170035
     16          8           0        0.270673    2.017140    4.756053
     17          7           0        0.056402   -1.855445   -1.466108
     18          6           0        0.217956   -2.979031   -2.227543
     19          6           0        0.334306   -2.722102   -3.733177
     20          8           0        0.263192   -4.099854   -1.786776
     21          7           0       -0.416599   -1.539612   -4.180728
     22          6           0       -0.080516   -3.930248   -4.588657
     23          6           0        0.061161   -0.266431   -4.042360
     24          6           0       -0.838031    0.801264   -4.632678
     25          8           0        1.102345   -0.027263   -3.483913
     26          1           0        0.642599   -3.602042    0.497588
     27          1           0        0.572379   -3.108255    2.817096
     28          1           0       -0.090778   -0.935058    3.606061
     29          1           0       -1.957930    1.245121   -0.929371
     30          1           0       -0.546883    0.936858    3.255419
     31          1           0       -1.992879    2.925203    3.854744
     32          1           0        0.343160    4.280161    2.565101
     33          1           0       -1.831786    4.812300    1.413374
     34          1           0       -2.131255    5.318809    3.113018
     35          1           0       -3.333482    4.289438    2.267558
     36          1           0        2.614422    3.334426    3.191364
     37          1           0        2.087367    4.533873    4.445327
     38          1           0        2.681450    2.904678    4.941470
     39          1           0       -0.073674   -0.981364   -1.956594
     40          1           0        1.424070   -2.557215   -3.923647
     41          1           0       -1.342254   -1.671548   -4.588030
     42          1           0        0.027903   -3.704151   -5.674506
     43          1           0        0.544015   -4.828248   -4.378080
     44          1           0       -1.146368   -4.196746   -4.403698
     45          1           0       -0.948701    0.645388   -5.729678
     46          1           0       -1.844605    0.762081   -4.157841
     47          1           0       -0.415441    1.817790   -4.466070
 ---------------------------------------------------------------------
                    Distance matrix (angstroms):
                    1          2          3          4          5
     1  C    0.000000
     2  C    1.345157   0.000000
     3  C    2.338739   1.339112   0.000000
     4  C    2.700691   2.315562   1.337699   0.000000
     5  C    2.367759   2.700241   2.338267   1.346138   0.000000
     6  C    1.355555   2.313450   2.673693   2.312314   1.352440
     7  S    2.730080   3.985470   4.501465   4.018221   2.780132
     8  N    3.662164   4.040262   3.496451   2.236862   1.351706
     9  C    4.530029   5.147895   4.761438   3.550175   2.502080
    10  C    5.930078   6.452687   5.892493   4.585692   3.752582
    11  O    4.535498   5.351222   5.212331   4.167764   2.989228
    12  N    6.158215   6.610794   6.000616   4.721702   4.018541
    13  C    6.992294   7.687364   7.266994   5.997916   5.020945
    14  C    6.252550   6.441929   5.632721   4.396400   4.072773
    15  C    6.995232   7.161351   6.407199   5.321210   5.073567
    16  O    6.114200   6.090657   5.099669   3.865235   3.851297
    17  N    1.353225   2.373637   3.593576   4.052878   3.586995
    18  C    2.493600   3.029411   4.365236   5.105440   4.844997
    19  C    3.774621   4.510797   5.835035   6.465797   6.016376
    20  O    2.970570   2.973192   4.260691   5.248057   5.282990
    21  N    4.073425   5.119047   6.358078   6.719466   5.994994
    22  C    5.009255   5.542420   6.876374   7.642684   7.304205
    23  C    4.149668   5.356118   6.472546   6.614682   5.715839
    24  C    5.193781   6.487693   7.499691   7.440867   6.367791
    25  O    3.884993   5.035134   6.083552   6.209984   5.360995
    26  H    2.150518   1.098176   2.067708   3.282362   3.796112
    27  H    3.338478   2.121642   1.103489   2.116718   3.335950
    28  H    3.804652   3.304586   2.095621   1.104498   2.135021
    29  H    3.583527   4.773295   5.189972   4.582454   3.305158
    30  H    4.294524   4.398078   3.567767   2.231552   1.940944
    31  H    6.384710   6.725770   5.994960   4.669156   4.091461
    32  H    6.521452   7.102128   6.626674   5.410744   4.589088
    33  H    6.890200   7.735172   7.480501   6.280205   5.160183
    34  H    7.974825   8.603507   8.087237   6.781196   5.909216
    35  H    7.218930   7.929189   7.547676   6.316911   5.337585
    36  H    6.534442   6.802449   6.220543   5.240511   4.878738
    37  H    7.969576   8.210424   7.475707   6.347090   6.008187
    38  H    7.324242   7.293495   6.422729   5.441860   5.464512
    39  H    1.945886   3.195310   4.279145   4.474969   3.719597
    40  H    4.153018   4.829525   6.122359   6.767046   6.350180
    41  H    4.655514   5.687816   6.904495   7.238623   6.485771
    42  H    5.913390   6.551372   7.888139   8.591122   8.155394
    43  H    5.334258   5.622560   6.937290   7.855266   7.693928
    44  H    5.105964   5.614498   6.906453   7.651361   7.317542
    45  H    6.125010   7.375115   8.456077   8.477260   7.440951
    46  H    5.043127   6.343592   7.288918   7.156125   6.046544
    47  H    5.566616   6.888894   7.788215   7.580962   6.425391
                    6          7          8          9         10
     6  C    0.000000
     7  S    1.832503   0.000000
     8  N    2.451255   3.211866   0.000000
     9  C    3.203793   3.249247   1.362276   0.000000
    10  C    4.606057   4.559087   2.424927   1.529025   0.000000
    11  O    3.259277   2.873950   2.263926   1.204213   2.400015
    12  N    4.895342   4.908259   2.821130   2.482181   1.471596
    13  C    5.639418   5.139889   3.774613   2.562780   1.536577
    14  C    5.139490   5.566723   3.043197   3.264697   2.500099
    15  C    5.994531   6.338632   4.266946   4.567682   3.826093
    16  O    5.098525   5.865722   2.895121   3.384505   2.840690
    17  N    2.332996   2.879380   4.782941   5.444531   6.875460
    18  C    3.659279   4.167142   6.091908   6.781700   8.228247
    19  C    4.718231   4.676032   7.159059   7.668499   9.093379
    20  O    4.284909   5.137604   6.599606   7.425326   8.871559
    21  N    4.644693   4.065704   6.950419   7.202900   8.599965
    22  C    6.044060   6.075606   8.479145   8.985672  10.451830
    23  C    4.395725   3.401880   6.508513   6.643926   7.923034
    24  C    5.132754   3.715626   6.919282   6.751527   7.936756
    25  O    4.107919   3.240401   6.163801   6.428748   7.620147
    26  H    3.336483   4.878482   5.131481   6.242985   7.547859
    27  H    3.777146   5.604036   4.352222   5.652205   6.665683
    28  H    3.328122   4.911377   2.439114   3.721861   4.450916
    29  H    2.625950   1.345984   3.418546   3.009047   4.330990
    30  H    3.234008   4.179430   1.010490   2.011490   2.506467
    31  H    5.128566   5.364077   2.760495   2.129201   1.118012
    32  H    5.261569   4.973825   3.511629   3.061436   2.152100
    33  H    5.546966   4.721326   4.057751   2.848222   2.195983
    34  H    6.623670   6.176504   4.607242   3.526253   2.196255
    35  H    5.897499   5.379304   4.154274   2.848205   2.207989
    36  H    5.592643   5.804134   4.264082   4.614716   4.129947
    37  H    6.900937   7.051846   5.076580   5.132164   4.124097
    38  H    6.458748   7.047457   4.800657   5.320118   4.669335
    39  H    2.370390   2.208756   4.732025   5.177158   6.579055
    40  H    5.083842   5.017232   7.489778   8.059343   9.407966
    41  H    5.163398   4.517443   7.384279   7.523811   8.944778
    42  H    6.850686   6.638469   9.273862   9.687569  11.126934
    43  H    6.508084   6.780435   8.943578   9.584405  11.043486
    44  H    6.098830   6.174159   8.463409   8.911827  10.416053
    45  H    6.179832   4.821838   8.021921   7.841578   9.019823
    46  H    4.869622   3.446916   6.526281   6.249326   7.478863
    47  H    5.295141   3.674598   6.814374   6.543286   7.573451
                   11         12         13         14         15
    11  O    0.000000
    12  N    3.505655   0.000000
    13  C    2.824268   2.452161   0.000000
    14  C    4.434483   1.368279   3.711140   0.000000
    15  C    5.684302   2.420341   4.798633   1.515949   0.000000
    16  O    4.582110   2.262519   4.235915   1.205525   2.396908
    17  N    5.229565   7.119010   7.762586   7.347542   8.008046
    18  C    6.520017   8.473623   9.108924   8.651091   9.265754
    19  C    7.265826   9.329605   9.796648   9.645362  10.184409
    20  O    7.243269   9.122220   9.863323   9.161410   9.793858
    21  N    6.628077   8.935904   9.095516   9.452325  10.049739
    22  C    8.512023  10.770901  11.138828  11.076765  11.661707
    23  C    6.104750   8.147666   8.318965   8.747051   9.243123
    24  C    6.022676   8.289079   8.051800   9.093309   9.651038
    25  O    6.093412   7.635328   8.123977   8.129023   8.467416
    26  H    6.409028   7.676289   8.784222   7.445621   8.087129
    27  H    6.178271   6.714478   8.100403   6.165688   6.872335
    28  H    4.535933   4.523424   5.947728   3.965430   4.937107
    29  H    2.170671   5.046798   4.642668   5.903446   6.879507
    30  H    3.084123   2.669106   4.017544   2.477219   3.763761
    31  H    2.984026   2.125425   2.145406   2.681158   4.135849
    32  H    3.895734   1.020059   2.598470   2.057660   2.516360
    33  H    2.900425   2.753281   1.114162   4.118260   4.987521
    34  H    3.920551   2.688578   1.114395   3.814781   4.740017
    35  H    2.748709   3.434138   1.114097   4.608145   5.814087
    36  H    5.637480   2.718351   5.052401   2.167529   1.113671
    37  H    6.191094   2.717142   4.791775   2.168671   1.113597
    38  H    6.484326   3.370376   5.762412   2.180904   1.113409
    39  H    4.843569   6.834611   7.307476   7.228351   7.869352
    40  H    7.767141   9.474864  10.139086   9.728598  10.104728
    41  H    6.815103   9.423587   9.345101  10.016020  10.714985
    42  H    9.152901  11.430942  11.710892  11.810686  12.346941
    43  H    9.213862  11.290409  11.839380  11.473935  12.003815
    44  H    8.352612  10.879286  11.072682  11.225135  11.940447
    45  H    7.071518   9.383113   9.073053  10.199859  10.731845
    46  H    5.385983   8.017242   7.540606   8.881268   9.598915
    47  H    5.876277   7.817195   7.579368   8.684650   9.141860
                   16         17         18         19         20
    16  O    0.000000
    17  N    7.331993   0.000000
    18  C    8.586915   1.366868   0.000000
    19  C    9.722731   2.442934   1.531824   0.000000
    20  O    8.956913   2.276612   1.205224   2.385736   0.000000
    21  N    9.643074   2.773561   2.507891   1.470525   3.570429
    22  C   11.082345   3.751515   2.562959   1.537381   2.827974
    23  C    9.092341   3.026890   3.267468   2.490085   4.452371
    24  C    9.531833   4.229099   4.603305   3.820678   5.773457
    25  O    8.530434   2.916810   3.327693   2.813214   4.491152
    26  H    7.060316   2.692644   2.827508   4.332287   2.368562
    27  H    5.488192   4.492394   5.058725   6.565963   4.719587
    28  H    3.188824   5.157099   6.189029   7.565622   6.262900
    29  H    6.155220   3.736192   4.925768   5.371641   5.851263
    30  H    2.021710   5.518489   6.781006   7.937566   7.172755
    31  H    2.600116   7.440807   8.760250   9.740862   9.288058
    32  H    3.150681   7.347009   8.699482   9.418072   9.442980
    33  H    4.838053   7.504365   8.840959   9.377961   9.698267
    34  H    4.401118   8.787728  10.143694  10.844613  10.883592
    35  H    4.934154   7.949287   9.254690   9.930921   9.987688
    36  H    3.110732   7.427669   8.658368   9.477855   9.250875
    37  H    3.119435   8.938303  10.220842  11.072955  10.803146
    38  H    2.575645   8.402780   9.595915  10.602794  10.009033
    39  H    7.359975   1.010700   2.036943   2.520489   3.141225
    40  H    9.878878   2.898706   2.123537   1.118504   2.879859
    41  H   10.174470   3.425851   3.116996   2.155294   4.039944
    42  H   11.899104   4.596644   3.527531   2.197057   3.914893
    43  H   11.417812   4.189857   2.854948   2.212629   2.706340
    44  H   11.158917   3.944335   2.842510   2.194668   2.973975
    45  H   10.645146   5.044049   5.173244   4.119722   6.287486
    46  H    9.247004   4.208408   4.687870   4.131286   5.805443
    47  H    9.249759   4.766032   5.331199   4.659385   6.531284
                   21         22         23         24         25
    21  N    0.000000
    22  C    2.448366   0.000000
    23  C    1.366891   3.707030   0.000000
    24  C    2.421067   4.791970   1.515584   0.000000
    25  O    2.253873   4.225271   1.205458   2.402327   0.000000
    26  H    5.221318   5.147864   5.663524   6.921055   5.370546
    27  H    7.239355   7.479781   7.442408   8.530693   7.033924
    28  H    7.817015   8.724945   7.679094   8.452811   7.246749
    29  H    4.549919   6.610560   4.006522   3.894312   4.184487
    30  H    7.838760   9.243146   7.421267   7.894633   7.004861
    31  H    9.326738  11.042887   8.761841   8.825028   8.494313
    32  H    8.941655  10.898008   8.025557   8.081210   7.464639
    33  H    8.581580  10.748184   7.690370   7.323299   7.484244
    34  H   10.157594  12.209274   9.338149   9.059605   9.086042
    35  H    9.168774  11.187167   8.490854   8.124524   8.449254
    36  H    9.342969  10.980296   8.474201   8.919191   7.625395
    37  H   10.842781  12.567972   9.959380  10.242094   9.200385
    38  H   10.609624  12.048568   9.880842  10.415153   9.059632
    39  H    2.318623   3.952685   2.209011   3.305061   2.150821
    40  H    2.118884   2.142717   2.668203   4.110865   2.587959
    41  H    1.019872   2.587220   2.059535   2.524091   3.146238
    42  H    2.667243   1.114425   3.805644   4.704680   4.412780
    43  H    3.431742   1.113906   4.599568   5.802265   4.915356
    44  H    2.764532   1.114124   4.127477   5.012745   4.825692
    45  H    2.730678   4.795010   2.167551   1.113532   3.114917
    46  H    2.708785   5.031457   2.168667   1.113641   3.124381
    47  H    3.369506   5.759092   2.179600   1.113403   2.583124
                   26         27         28         29         30
    26  H    0.000000
    27  H    2.372525   0.000000
    28  H    4.160919   2.405209   0.000000
    29  H    5.682777   6.276174   5.367456   0.000000
    30  H    5.442620   4.219931   1.958329   4.427025   0.000000
    31  H    7.798793   6.637761   4.310620   5.070666   2.530536
    32  H    8.154348   7.396265   5.335767   5.168928   3.527944
    33  H    8.818299   8.395572   6.393052   4.269559   4.479191
    34  H    9.701357   8.855090   6.596779   5.741592   4.661760
    35  H    9.012074   8.383532   6.293018   4.623891   4.469988
    36  H    7.697993   6.768911   5.071348   6.500158   3.968159
    37  H    9.157790   7.959174   5.946250   7.487837   4.614507
    38  H    8.138944   6.716882   4.920583   7.664512   4.139712
    39  H    3.661149   5.265849   5.562874   3.092385   5.573920
    40  H    4.609737   6.816644   7.850010   5.904352   8.223879
    41  H    5.790506   7.782406   8.321763   4.719301   8.303980
    42  H    6.203469   8.529880   9.685602   7.138286  10.080323
    43  H    5.028463   7.397955   8.905414   7.418836   9.627918
    44  H    5.251350   7.501918   8.712584   6.507188   9.239878
    45  H    7.704008   9.457847   9.507358   4.941778   8.998799
    46  H    6.848706   8.334930   8.138450   3.266372   7.528018
    47  H    7.425088   8.847950   8.534804   3.900700   7.772690
                   31         32         33         34         35
    31  H    0.000000
    32  H    2.992686   0.000000
    33  H    3.089882   2.517943   0.000000
    34  H    2.509712   2.738929   1.798617   0.000000
    35  H    2.485460   3.688674   1.805022   1.794368   0.000000
    36  H    4.672768   2.538750   5.011400   5.144450   6.094508
    37  H    4.425496   2.577184   4.962864   4.493100   5.847053
    38  H    4.799036   3.606478   6.037862   5.686246   6.726572
    39  H    7.260597   6.950045   6.929227   8.344267   7.500077
    40  H   10.111173   9.487989   9.664065  11.143911  10.384699
    41  H    9.635033   9.456783   8.848547  10.430424   9.300399
    42  H   11.782975  11.477794  11.235053  12.778746  11.758944
    43  H   11.590135  11.454747  11.494587  12.893269  11.930284
    44  H   10.938035  11.074331  10.745745  12.166216  11.013830
    45  H    9.907018   9.147887   8.316621  10.071374   9.106155
    46  H    8.300759   7.896908   6.887879   8.585530   7.479623
    47  H    8.541113   7.488398   6.748406   8.523129   7.743756
                   36         37         38         39         40
    36  H    0.000000
    37  H    1.813528   0.000000
    38  H    1.803343   1.803710   0.000000
    39  H    7.235563   8.721957   8.383037   0.000000
    40  H    9.314062  10.989232  10.488259   2.931866   0.000000
    41  H   10.061512  11.483514  11.311207   3.001684   2.979658
    42  H   11.611860  13.210505  12.783461   4.609420   2.515999
    43  H   11.323088  12.956996  12.297186   4.587336   2.477619
    44  H   11.337860  12.844687  12.345630   4.180631   3.086367
    45  H    9.975558  11.307907  11.495903   4.200971   4.375895
    46  H    8.972775  10.183384  10.386210   3.319832   4.664419
    47  H    8.373563   9.646458   9.963627   3.774856   4.776891
                   41         42         43         44         45
    41  H    0.000000
    42  H    2.681275   0.000000
    43  H    3.683320   1.791839   0.000000
    44  H    2.539483   1.799032   1.804673   0.000000
    45  H    2.612745   4.458171   5.832299   5.024297   0.000000
    46  H    2.521898   5.074819   6.083238   5.013776   1.812990
    47  H    3.612387   5.669983   6.715513   6.059108   1.804328
                   46         47
    46  H    0.000000
    47  H    1.803340   0.000000
 Stoichiometry    C16H22N4O4S
 Framework group  C1[X(C16H22N4O4S)]
 Deg. of freedom   135
 Full point group                 C1      NOp   1
 Largest Abelian subgroup         C1      NOp   1
 Largest concise Abelian subgroup C1      NOp   1
                         Standard orientation:                         
 ---------------------------------------------------------------------
 Center     Atomic      Atomic             Coordinates (Angstroms)
 Number     Number       Type             X           Y           Z
 ---------------------------------------------------------------------
      1          6           0       -1.198707    1.341524   -0.182341
      2          6           0       -1.049653    2.676353   -0.256244
      3          6           0        0.160392    3.232900   -0.395048
      4          6           0        1.243348    2.453283   -0.489085
      5          6           0        1.140942    1.111281   -0.463965
      6          6           0       -0.087359    0.572801   -0.289585
      7         16           0       -0.297141   -1.232105   -0.052152
      8          7           0        2.338537    0.508359   -0.635306
      9          6           0        2.735000   -0.710452   -1.096950
     10          6           0        4.196971   -1.041158   -0.794968
     11          8           0        2.024982   -1.447375   -1.731732
     12          7           0        4.542391   -0.742929    0.604081
     13          6           0        4.571185   -2.498227   -1.107991
     14          6           0        4.875160    0.508554    1.045941
     15          6           0        5.205873    0.573077    2.523969
     16          8           0        4.892924    1.474819    0.325312
     17          7           0       -2.395192    0.739003    0.009000
     18          6           0       -3.682662    1.197320   -0.017380
     19          6           0       -4.740486    0.160846    0.374044
     20          8           0       -4.000415    2.318414   -0.325189
     21          7           0       -4.362098   -1.216423    0.024194
     22          6           0       -6.129883    0.461021   -0.211628
     23          6           0       -3.511064   -1.964496    0.788733
     24          6           0       -3.309439   -3.380661    0.287916
     25          8           0       -2.964029   -1.518661    1.766031
     26          1           0       -1.888689    3.378218   -0.159321
     27          1           0        0.267438    4.330652   -0.429246
     28          1           0        2.224292    2.944720   -0.616176
     29          1           0       -0.030845   -1.891494   -1.194941
     30          1           0        3.079631    1.185652   -0.520656
     31          1           0        4.806660   -0.397852   -1.476427
     32          1           0        4.485282   -1.497232    1.288397
     33          1           0        3.970307   -3.203984   -0.489758
     34          1           0        5.646878   -2.688205   -0.887381
     35          1           0        4.404873   -2.747219   -2.181096
     36          1           0        4.328363    0.246453    3.126926
     37          1           0        6.070901   -0.089622    2.753432
     38          1           0        5.471305    1.609716    2.831550
     39          1           0       -2.261042   -0.248171    0.179306
     40          1           0       -4.839862    0.241991    1.485166
     41          1           0       -4.728813   -1.622279   -0.836585
     42          1           0       -6.869437   -0.310349    0.104587
     43          1           0       -6.523087    1.447587    0.124325
     44          1           0       -6.096568    0.460850   -1.325253
     45          1           0       -4.276848   -3.931999    0.298032
     46          1           0       -2.910635   -3.367846   -0.751790
     47          1           0       -2.586692   -3.933336    0.929674
 ---------------------------------------------------------------------
 Rotational constants (GHZ):           0.3793508           0.1079653           0.0934362
 Standard basis: 6-31G(d) (5D, 7F)
 There are   423 symmetry adapted cartesian basis functions of A   symmetry.
 There are   398 symmetry adapted basis functions of A   symmetry.
   398 basis functions,   812 primitive gaussians,   423 cartesian basis functions
    97 alpha electrons       97 beta electrons
       nuclear repulsion energy      2446.9063645394 Hartrees.
 NAtoms=   47 NActive=   47 NUniq=   47 SFac= 1.00D+00 NAtFMM=   60 NAOKFM=F Big=F
 Integral buffers will be    131072 words long.
 Raffenetti 2 integral format.
 Two-electron integral symmetry is turned on.
 One-electron integrals computed using PRISM.
 NBasis=   398 RedAO= T EigKep=  2.92D-04  NBF=   398
 NBsUse=   398 1.00D-06 EigRej= -1.00D+00 NBFU=   398
 ExpMin= 1.17D-01 ExpMax= 2.19D+04 ExpMxC= 3.30D+03 IAcc=3 IRadAn=         5 AccDes= 0.00D+00
 Harris functional with IExCor= 1009 and IRadAn=       5 diagonalized for initial guess.
 HarFok:  IExCor= 1009 AccDes= 0.00D+00 IRadAn=         5 IDoV= 1 UseB2=F ITyADJ=14
 ICtDFT=  3500011 ScaDFX=  1.000000  1.000000  1.000000  1.000000
 FoFCou: FMM=F IPFlag=           0 FMFlag=      100000 FMFlg1=           0
         NFxFlg=           0 DoJE=T BraDBF=F KetDBF=T FulRan=T
         wScrn=  0.000000 ICntrl=       500 IOpCl=  0 I1Cent=   200000004 NGrid=           0
         NMat0=    1 NMatS0=      1 NMatT0=    0 NMatD0=    1 NMtDS0=    0 NMtDT0=    0
 Petite list used in FoFCou.
 Requested convergence on RMS density matrix=1.00D-08 within 128 cycles.
 Requested convergence on MAX density matrix=1.00D-06.
 Requested convergence on             energy=1.00D-06.
 No special actions if energy rises.
 Integral accuracy reduced to 1.0D-05 until final iterations.
 Initial convergence to 1.0D-05 achieved.  Increase integral accuracy.
 SCF Done:  E(RM062X) =  -1540.54097681     A.U. after   15 cycles
            NFock= 15  Conv=0.55D-08     -V/T= 2.0045

 **********************************************************************

            Population analysis using the SCF Density.

 **********************************************************************

 Orbital symmetries:
       Occupied  (A) (A) (A) (A) (A) (A) (A) (A) (A) (A) (A) (A)
                 (A) (A) (A) (A) (A) (A) (A) (A) (A) (A) (A) (A)
                 (A) (A) (A) (A) (A) (A) (A) (A) (A) (A) (A) (A)
                 (A) (A) (A) (A) (A) (A) (A) (A) (A) (A) (A) (A)
                 (A) (A) (A) (A) (A) (A) (A) (A) (A) (A) (A) (A)
                 (A) (A) (A) (A) (A) (A) (A) (A) (A) (A) (A) (A)
                 (A) (A) (A) (A) (A) (A) (A) (A) (A) (A) (A) (A)
                 (A) (A) (A) (A) (A) (A) (A) (A) (A) (A) (A) (A)
                 (A)
       Virtual   (A) (A) (A) (A) (A) (A) (A) (A) (A) (A) (A) (A)
                 (A) (A) (A) (A) (A) (A) (A) (A) (A) (A) (A) (A)
                 (A) (A) (A) (A) (A) (A) (A) (A) (A) (A) (A) (A)
                 (A) (A) (A) (A) (A) (A) (A) (A) (A) (A) (A) (A)
                 (A) (A) (A) (A) (A) (A) (A) (A) (A) (A) (A) (A)
                 (A) (A) (A) (A) (A) (A) (A) (A) (A) (A) (A) (A)
                 (A) (A) (A) (A) (A) (A) (A) (A) (A) (A) (A) (A)
                 (A) (A) (A) (A) (A) (A) (A) (A) (A) (A) (A) (A)
                 (A) (A) (A) (A) (A) (A) (A) (A) (A) (A) (A) (A)
                 (A) (A) (A) (A) (A) (A) (A) (A) (A) (A) (A) (A)
                 (A) (A) (A) (A) (A) (A) (A) (A) (A) (A) (A) (A)
                 (A) (A) (A) (A) (A) (A) (A) (A) (A) (A) (A) (A)
                 (A) (A) (A) (A) (A) (A) (A) (A) (A) (A) (A) (A)
                 (A) (A) (A) (A) (A) (A) (A) (A) (A) (A) (A) (A)
                 (A) (A) (A) (A) (A) (A) (A) (A) (A) (A) (A) (A)
                 (A) (A) (A) (A) (A) (A) (A) (A) (A) (A) (A) (A)
                 (A) (A) (A) (A) (A) (A) (A) (A) (A) (A) (A) (A)
                 (A) (A) (A) (A) (A) (A) (A) (A) (A) (A) (A) (A)
                 (A) (A) (A) (A) (A) (A) (A) (A) (A) (A) (A) (A)
                 (A) (A) (A) (A) (A) (A) (A) (A) (A) (A) (A) (A)
                 (A) (A) (A) (A) (A) (A) (A) (A) (A) (A) (A) (A)
                 (A) (A) (A) (A) (A) (A) (A) (A) (A) (A) (A) (A)
                 (A) (A) (A) (A) (A) (A) (A) (A) (A) (A) (A) (A)
                 (A) (A) (A) (A) (A) (A) (A) (A) (A) (A) (A) (A)
                 (A) (A) (A) (A) (A) (A) (A) (A) (A) (A) (A) (A)
                 (A)
 The electronic state is 1-A.
 Alpha  occ. eigenvalues --  -89.88790 -19.62327 -19.61897 -19.60668 -19.60641
 Alpha  occ. eigenvalues --  -14.79586 -14.78654 -14.78355 -14.77371 -10.66526
 Alpha  occ. eigenvalues --  -10.65762 -10.65125 -10.64825 -10.60809 -10.59833
 Alpha  occ. eigenvalues --  -10.58576 -10.58333 -10.56938 -10.55948 -10.55522
 Alpha  occ. eigenvalues --  -10.55169 -10.54743 -10.53206 -10.52579 -10.51844
 Alpha  occ. eigenvalues --   -8.25129  -6.17001  -6.16712  -6.16344  -1.18469
 Alpha  occ. eigenvalues --   -1.17653  -1.17081  -1.16279  -1.07279  -1.05787
 Alpha  occ. eigenvalues --   -1.04285  -1.03312  -0.96543  -0.89006  -0.88261
 Alpha  occ. eigenvalues --   -0.87219  -0.84894  -0.82656  -0.81824  -0.79625
 Alpha  occ. eigenvalues --   -0.75941  -0.75643  -0.70955  -0.70701  -0.68047
 Alpha  occ. eigenvalues --   -0.67151  -0.66350  -0.64368  -0.61936  -0.60457
 Alpha  occ. eigenvalues --   -0.60049  -0.57538  -0.57142  -0.56225  -0.55734
 Alpha  occ. eigenvalues --   -0.54687  -0.54285  -0.53535  -0.52671  -0.51790
 Alpha  occ. eigenvalues --   -0.51254  -0.50620  -0.49812  -0.49359  -0.48793
 Alpha  occ. eigenvalues --   -0.48282  -0.48087  -0.47899  -0.47080  -0.46000
 Alpha  occ. eigenvalues --   -0.45777  -0.45057  -0.44869  -0.44514  -0.43985
 Alpha  occ. eigenvalues --   -0.43784  -0.42987  -0.42542  -0.41875  -0.41720
 Alpha  occ. eigenvalues --   -0.39339  -0.37902  -0.35932  -0.34969  -0.34803
 Alpha  occ. eigenvalues --   -0.34122  -0.32573  -0.31879  -0.30620  -0.29501
 Alpha  occ. eigenvalues --   -0.27309  -0.25439
 Alpha virt. eigenvalues --    0.02470   0.02959   0.05571   0.06686   0.07875
 Alpha virt. eigenvalues --    0.08245   0.10731   0.11035   0.11855   0.13028
 Alpha virt. eigenvalues --    0.14159   0.15045   0.15211   0.16000   0.16460
 Alpha virt. eigenvalues --    0.17696   0.18235   0.18615   0.19039   0.19454
 Alpha virt. eigenvalues --    0.19911   0.20109   0.20631   0.20927   0.21588
 Alpha virt. eigenvalues --    0.22381   0.23099   0.23946   0.24243   0.24498
 Alpha virt. eigenvalues --    0.25552   0.25824   0.26966   0.27157   0.29070
 Alpha virt. eigenvalues --    0.29751   0.30235   0.30819   0.31937   0.33676
 Alpha virt. eigenvalues --    0.34984   0.35479   0.35518   0.37621   0.38366
 Alpha virt. eigenvalues --    0.39342   0.40534   0.41883   0.42353   0.42575
 Alpha virt. eigenvalues --    0.43685   0.44220   0.45272   0.47861   0.50073
 Alpha virt. eigenvalues --    0.51409   0.53527   0.55739   0.56218   0.56775
 Alpha virt. eigenvalues --    0.57318   0.57794   0.58097   0.58214   0.59029
 Alpha virt. eigenvalues --    0.59683   0.59921   0.60580   0.61713   0.62457
 Alpha virt. eigenvalues --    0.63592   0.64284   0.64989   0.65684   0.66018
 Alpha virt. eigenvalues --    0.66493   0.67267   0.67749   0.68141   0.68858
 Alpha virt. eigenvalues --    0.68987   0.69431   0.70747   0.72237   0.73242
 Alpha virt. eigenvalues --    0.73734   0.74060   0.74898   0.75032   0.75306
 Alpha virt. eigenvalues --    0.75698   0.77350   0.77854   0.78027   0.78609
 Alpha virt. eigenvalues --    0.78838   0.80292   0.81856   0.81995   0.82150
 Alpha virt. eigenvalues --    0.82651   0.85289   0.86474   0.87644   0.88295
 Alpha virt. eigenvalues --    0.89047   0.89206   0.90042   0.90529   0.91687
 Alpha virt. eigenvalues --    0.91975   0.92204   0.92476   0.92652   0.93179
 Alpha virt. eigenvalues --    0.93680   0.94466   0.94519   0.94820   0.95249
 Alpha virt. eigenvalues --    0.95722   0.95957   0.96953   0.97312   0.98588
 Alpha virt. eigenvalues --    0.98888   0.99278   0.99675   1.00178   1.00711
 Alpha virt. eigenvalues --    1.01065   1.01755   1.02198   1.03289   1.04146
 Alpha virt. eigenvalues --    1.06059   1.06714   1.06992   1.07638   1.08895
 Alpha virt. eigenvalues --    1.09909   1.10733   1.12592   1.13668   1.13833
 Alpha virt. eigenvalues --    1.15246   1.15854   1.18596   1.19218   1.21215
 Alpha virt. eigenvalues --    1.22530   1.24049   1.25381   1.25992   1.26160
 Alpha virt. eigenvalues --    1.27807   1.30038   1.30526   1.31523   1.32907
 Alpha virt. eigenvalues --    1.33459   1.33905   1.34696   1.38296   1.38998
 Alpha virt. eigenvalues --    1.40087   1.41461   1.41583   1.44412   1.45775
 Alpha virt. eigenvalues --    1.46487   1.47682   1.48018   1.48207   1.49153
 Alpha virt. eigenvalues --    1.51176   1.52613   1.53559   1.54971   1.55369
 Alpha virt. eigenvalues --    1.56663   1.57289   1.59004   1.60864   1.63248
 Alpha virt. eigenvalues --    1.65914   1.66606   1.67250   1.68828   1.70804
 Alpha virt. eigenvalues --    1.71999   1.73874   1.75125   1.77470   1.78988
 Alpha virt. eigenvalues --    1.80088   1.80548   1.81775   1.83657   1.84130
 Alpha virt. eigenvalues --    1.86018   1.87022   1.87688   1.88440   1.88738
 Alpha virt. eigenvalues --    1.89181   1.90028   1.90651   1.90913   1.92257
 Alpha virt. eigenvalues --    1.93859   1.95648   1.96382   1.96918   1.97505
 Alpha virt. eigenvalues --    1.98008   1.98904   1.99192   2.00072   2.00866
 Alpha virt. eigenvalues --    2.01102   2.03077   2.03930   2.04275   2.04626
 Alpha virt. eigenvalues --    2.05005   2.06731   2.07800   2.09399   2.10614
 Alpha virt. eigenvalues --    2.11061   2.12073   2.13193   2.15299   2.15445
 Alpha virt. eigenvalues --    2.17087   2.20688   2.21484   2.21922   2.23221
 Alpha virt. eigenvalues --    2.23529   2.24270   2.26189   2.27546   2.27982
 Alpha virt. eigenvalues --    2.28919   2.29548   2.30514   2.30990   2.34165
 Alpha virt. eigenvalues --    2.36072   2.37237   2.38395   2.39747   2.40409
 Alpha virt. eigenvalues --    2.40688   2.41825   2.43083   2.44202   2.45511
 Alpha virt. eigenvalues --    2.47247   2.48963   2.49726   2.51236   2.52652
 Alpha virt. eigenvalues --    2.55077   2.58897   2.59309   2.60599   2.62476
 Alpha virt. eigenvalues --    2.64476   2.64712   2.67589   2.69516   2.71355
 Alpha virt. eigenvalues --    2.72196   2.72867   2.74669   2.76435   2.79268
 Alpha virt. eigenvalues --    2.81092   2.84353   2.85871   2.88113   2.89061
 Alpha virt. eigenvalues --    2.91834   2.93723   2.95069   3.00190   3.04071
 Alpha virt. eigenvalues --    3.05568   3.06112   3.06409   3.07692   3.11754
 Alpha virt. eigenvalues --    3.15338   3.18589   3.19897   3.37639   3.47347
 Alpha virt. eigenvalues --    3.59724
          Condensed to atoms (all electrons):
               1          2          3          4          5          6
     1  C    4.540003   0.605163   0.000810  -0.051076  -0.014668   0.457028
     2  C    0.605163   5.002227   0.534753  -0.054414  -0.053784  -0.091506
     3  C    0.000810   0.534753   4.829776   0.557947  -0.014246  -0.059407
     4  C   -0.051076  -0.054414   0.557947   5.085187   0.535570  -0.087733
     5  C   -0.014668  -0.053784  -0.014246   0.535570   4.538645   0.508182
     6  C    0.457028  -0.091506  -0.059407  -0.087733   0.508182   5.350529
     7  S   -0.096349   0.006085   0.000336   0.005938  -0.063177   0.307197
     8  N    0.003625   0.001204   0.008049  -0.048153   0.223340  -0.066556
     9  C    0.000237  -0.000003  -0.000090   0.006853  -0.019423  -0.007440
    10  C    0.000008   0.000000   0.000004  -0.000575   0.005273   0.000295
    11  O    0.000050  -0.000000   0.000002   0.000265   0.007082  -0.001100
    12  N   -0.000001   0.000000  -0.000001   0.000026   0.000478  -0.000033
    13  C   -0.000000  -0.000000  -0.000000   0.000002  -0.000077  -0.000004
    14  C   -0.000001   0.000000  -0.000002  -0.000076   0.000479  -0.000010
    15  C    0.000000   0.000000  -0.000000  -0.000028   0.000045   0.000001
    16  O    0.000000   0.000000  -0.000007  -0.001210   0.001529   0.000003
    17  N    0.267344  -0.084197   0.005968   0.001209   0.007179  -0.055017
    18  C   -0.031865  -0.005167   0.000470  -0.000004   0.000073   0.007299
    19  C    0.005378   0.000813   0.000012   0.000000  -0.000004  -0.000643
    20  O   -0.005667  -0.001165   0.000711  -0.000006  -0.000004   0.000116
    21  N   -0.000514  -0.000068  -0.000000   0.000000  -0.000001   0.000157
    22  C   -0.000067  -0.000005  -0.000000  -0.000000   0.000000   0.000003
    23  C    0.000366  -0.000016  -0.000000   0.000000  -0.000011  -0.000194
    24  C    0.000055   0.000000  -0.000000   0.000000  -0.000000  -0.000040
    25  O    0.002320   0.000020  -0.000000   0.000000  -0.000016  -0.000791
    26  H   -0.022404   0.354677  -0.044954   0.006099   0.000422   0.006729
    27  H    0.002979  -0.034871   0.365224  -0.036247   0.003810   0.001307
    28  H    0.000884   0.004756  -0.027788   0.356932  -0.047732   0.005508
    29  H    0.000732  -0.000041   0.000012  -0.000102  -0.004240  -0.013697
    30  H    0.000092  -0.000001   0.000328  -0.006042  -0.029095   0.005443
    31  H   -0.000000   0.000000  -0.000001   0.000019  -0.000243  -0.000024
    32  H    0.000000   0.000000  -0.000000  -0.000000   0.000002  -0.000006
    33  H   -0.000000   0.000000  -0.000000   0.000000  -0.000003  -0.000003
    34  H    0.000000   0.000000   0.000000  -0.000000   0.000001   0.000000
    35  H    0.000000  -0.000000   0.000000  -0.000000   0.000000   0.000001
    36  H    0.000000   0.000000   0.000000   0.000002  -0.000011  -0.000001
    37  H   -0.000000  -0.000000   0.000000   0.000000  -0.000000  -0.000000
    38  H   -0.000000   0.000000   0.000000  -0.000000  -0.000001   0.000000
    39  H   -0.034179   0.006280  -0.000111  -0.000057   0.000970  -0.015656
    40  H   -0.000120  -0.000028  -0.000001   0.000000  -0.000000   0.000024
    41  H   -0.000008  -0.000000  -0.000000   0.000000   0.000000  -0.000000
    42  H    0.000002   0.000000  -0.000000   0.000000   0.000000  -0.000000
    43  H    0.000004  -0.000001  -0.000000   0.000000   0.000000  -0.000000
    44  H   -0.000008  -0.000002  -0.000000   0.000000  -0.000000   0.000000
    45  H   -0.000000  -0.000000   0.000000  -0.000000   0.000000  -0.000000
    46  H   -0.000026   0.000000   0.000000  -0.000000   0.000001   0.000008
    47  H    0.000001   0.000000   0.000000  -0.000000  -0.000000   0.000002
               7          8          9         10         11         12
     1  C   -0.096349   0.003625   0.000237   0.000008   0.000050  -0.000001
     2  C    0.006085   0.001204  -0.000003   0.000000  -0.000000   0.000000
     3  C    0.000336   0.008049  -0.000090   0.000004   0.000002  -0.000001
     4  C    0.005938  -0.048153   0.006853  -0.000575   0.000265   0.000026
     5  C   -0.063177   0.223340  -0.019423   0.005273   0.007082   0.000478
     6  C    0.307197  -0.066556  -0.007440   0.000295  -0.001100  -0.000033
     7  S   15.712290  -0.004065   0.007311  -0.001320  -0.025623   0.000158
     8  N   -0.004065   7.337160   0.289414  -0.130282  -0.106478   0.002127
     9  C    0.007311   0.289414   4.334548   0.321342   0.644040  -0.051411
    10  C   -0.001320  -0.130282   0.321342   5.190956  -0.093932   0.217576
    11  O   -0.025623  -0.106478   0.644040  -0.093932   8.024855   0.001473
    12  N    0.000158   0.002127  -0.051411   0.217576   0.001473   7.204536
    13  C    0.000034   0.004761  -0.037138   0.338462   0.006348  -0.052847
    14  C    0.000026   0.007227  -0.007064  -0.017811   0.000018   0.266963
    15  C   -0.000002  -0.000468  -0.000278   0.005919   0.000001  -0.130155
    16  O   -0.000001  -0.018371  -0.005558   0.011251  -0.000010  -0.110044
    17  N   -0.040738  -0.000097   0.000000  -0.000000  -0.000001   0.000000
    18  C    0.003933   0.000000   0.000000  -0.000000   0.000000  -0.000000
    19  C   -0.000577  -0.000000   0.000000   0.000000   0.000000  -0.000000
    20  O   -0.000078  -0.000000   0.000000  -0.000000  -0.000000   0.000000
    21  N   -0.001742   0.000000  -0.000000  -0.000000  -0.000000  -0.000000
    22  C   -0.000011   0.000000   0.000000   0.000000  -0.000000   0.000000
    23  C   -0.003257   0.000000   0.000000   0.000000   0.000000  -0.000000
    24  C   -0.002407  -0.000000   0.000000   0.000000   0.000000  -0.000000
    25  O   -0.004901   0.000000   0.000000   0.000000  -0.000000   0.000000
    26  H   -0.000245   0.000002  -0.000000   0.000000   0.000000   0.000000
    27  H    0.000025  -0.000172   0.000001  -0.000000  -0.000000  -0.000000
    28  H   -0.000252  -0.011696   0.000484  -0.000063   0.000003   0.000014
    29  H    0.254418   0.001066  -0.004773   0.000120   0.004181  -0.000000
    30  H   -0.000052   0.271874  -0.027534   0.006739   0.001820  -0.010486
    31  H    0.000009  -0.000084  -0.036602   0.375486   0.001473  -0.043700
    32  H    0.000047   0.000289   0.000348  -0.029116  -0.000000   0.317077
    33  H    0.000110   0.000044  -0.005297  -0.032998   0.002125  -0.003788
    34  H    0.000001  -0.000038   0.004314  -0.032066   0.000302  -0.000604
    35  H    0.000011   0.000119  -0.001470  -0.024993   0.002550   0.003494
    36  H    0.000003   0.000148   0.000049  -0.000118  -0.000000   0.001627
    37  H    0.000000   0.000001   0.000000  -0.000170   0.000000   0.002028
    38  H   -0.000000   0.000007   0.000003  -0.000110  -0.000000   0.004270
    39  H    0.053080  -0.000011   0.000007   0.000000   0.000017  -0.000000
    40  H   -0.000001  -0.000000  -0.000000  -0.000000   0.000000  -0.000000
    41  H    0.000080  -0.000000  -0.000000  -0.000000   0.000000  -0.000000
    42  H    0.000001  -0.000000   0.000000   0.000000   0.000000  -0.000000
    43  H    0.000000   0.000000   0.000000   0.000000   0.000000  -0.000000
    44  H    0.000000  -0.000000  -0.000000  -0.000000   0.000000  -0.000000
    45  H    0.000246   0.000000   0.000000   0.000000   0.000000  -0.000000
    46  H    0.002277  -0.000000  -0.000000  -0.000000   0.000000   0.000000
    47  H    0.000145  -0.000000   0.000000   0.000000   0.000000  -0.000000
              13         14         15         16         17         18
     1  C   -0.000000  -0.000001   0.000000   0.000000   0.267344  -0.031865
     2  C   -0.000000   0.000000   0.000000   0.000000  -0.084197  -0.005167
     3  C   -0.000000  -0.000002  -0.000000  -0.000007   0.005968   0.000470
     4  C    0.000002  -0.000076  -0.000028  -0.001210   0.001209  -0.000004
     5  C   -0.000077   0.000479   0.000045   0.001529   0.007179   0.000073
     6  C   -0.000004  -0.000010   0.000001   0.000003  -0.055017   0.007299
     7  S    0.000034   0.000026  -0.000002  -0.000001  -0.040738   0.003933
     8  N    0.004761   0.007227  -0.000468  -0.018371  -0.000097   0.000000
     9  C   -0.037138  -0.007064  -0.000278  -0.005558   0.000000   0.000000
    10  C    0.338462  -0.017811   0.005919   0.011251  -0.000000  -0.000000
    11  O    0.006348   0.000018   0.000001  -0.000010  -0.000001   0.000000
    12  N   -0.052847   0.266963  -0.130155  -0.110044   0.000000  -0.000000
    13  C    5.126707   0.004124  -0.000176   0.000497   0.000000  -0.000000
    14  C    0.004124   4.281745   0.366616   0.611673   0.000000   0.000000
    15  C   -0.000176   0.366616   5.334573  -0.076526  -0.000000  -0.000000
    16  O    0.000497   0.611673  -0.076526   8.022650  -0.000000   0.000000
    17  N    0.000000   0.000000  -0.000000  -0.000000   7.333590   0.289214
    18  C   -0.000000   0.000000  -0.000000   0.000000   0.289214   4.313730
    19  C    0.000000  -0.000000  -0.000000  -0.000000  -0.117309   0.339999
    20  O    0.000000  -0.000000  -0.000000  -0.000000  -0.098055   0.640984
    21  N   -0.000000   0.000000   0.000000   0.000000   0.001420  -0.044686
    22  C    0.000000   0.000000   0.000000   0.000000   0.003913  -0.039920
    23  C   -0.000000   0.000000  -0.000000  -0.000000   0.001120  -0.006093
    24  C   -0.000000  -0.000000   0.000000   0.000000  -0.000131  -0.000246
    25  O    0.000000   0.000000  -0.000000  -0.000000  -0.008366  -0.004579
    26  H   -0.000000   0.000000   0.000000   0.000000  -0.012227   0.003264
    27  H    0.000000   0.000000  -0.000000  -0.000000  -0.000149  -0.000006
    28  H    0.000000  -0.000058  -0.000006   0.001047   0.000007  -0.000000
    29  H    0.000005  -0.000000  -0.000000   0.000000   0.000355  -0.000008
    30  H    0.000138   0.001041   0.001702   0.042654   0.000001  -0.000000
    31  H   -0.029667  -0.000189   0.000472   0.006489  -0.000000  -0.000000
    32  H   -0.001584  -0.021505   0.000530   0.002762   0.000000   0.000000
    33  H    0.379134  -0.000088  -0.000003  -0.000007   0.000000  -0.000000
    34  H    0.373896  -0.000061  -0.000023  -0.000003  -0.000000  -0.000000
    35  H    0.378131  -0.000039   0.000003   0.000003   0.000000   0.000000
    36  H   -0.000008  -0.025580   0.362295   0.001024   0.000000   0.000000
    37  H   -0.000005  -0.025209   0.360131   0.001355   0.000000   0.000000
    38  H    0.000002  -0.021339   0.366763   0.002924   0.000000   0.000000
    39  H    0.000000  -0.000000   0.000000   0.000000   0.257267  -0.017447
    40  H   -0.000000  -0.000000   0.000000   0.000000  -0.001305  -0.034020
    41  H   -0.000000  -0.000000   0.000000   0.000000   0.000287   0.000848
    42  H    0.000000  -0.000000  -0.000000   0.000000  -0.000029   0.004261
    43  H    0.000000   0.000000   0.000000   0.000000   0.000165  -0.001953
    44  H   -0.000000   0.000000   0.000000   0.000000   0.000064  -0.005038
    45  H   -0.000000  -0.000000   0.000000   0.000000  -0.000012   0.000003
    46  H    0.000000  -0.000000   0.000000   0.000000   0.000105   0.000027
    47  H   -0.000000   0.000000  -0.000000  -0.000000   0.000005   0.000001
              19         20         21         22         23         24
     1  C    0.005378  -0.005667  -0.000514  -0.000067   0.000366   0.000055
     2  C    0.000813  -0.001165  -0.000068  -0.000005  -0.000016   0.000000
     3  C    0.000012   0.000711  -0.000000  -0.000000  -0.000000  -0.000000
     4  C    0.000000  -0.000006   0.000000  -0.000000   0.000000   0.000000
     5  C   -0.000004  -0.000004  -0.000001   0.000000  -0.000011  -0.000000
     6  C   -0.000643   0.000116   0.000157   0.000003  -0.000194  -0.000040
     7  S   -0.000577  -0.000078  -0.001742  -0.000011  -0.003257  -0.002407
     8  N   -0.000000  -0.000000   0.000000   0.000000   0.000000  -0.000000
     9  C    0.000000   0.000000  -0.000000   0.000000   0.000000   0.000000
    10  C    0.000000  -0.000000  -0.000000   0.000000   0.000000   0.000000
    11  O    0.000000  -0.000000  -0.000000  -0.000000   0.000000   0.000000
    12  N   -0.000000   0.000000  -0.000000   0.000000  -0.000000  -0.000000
    13  C    0.000000   0.000000  -0.000000   0.000000  -0.000000  -0.000000
    14  C   -0.000000  -0.000000   0.000000   0.000000   0.000000  -0.000000
    15  C   -0.000000  -0.000000   0.000000   0.000000  -0.000000   0.000000
    16  O   -0.000000  -0.000000   0.000000   0.000000  -0.000000   0.000000
    17  N   -0.117309  -0.098055   0.001420   0.003913   0.001120  -0.000131
    18  C    0.339999   0.640984  -0.044686  -0.039920  -0.006093  -0.000246
    19  C    5.150778  -0.091281   0.203135   0.336092  -0.015892   0.006292
    20  O   -0.091281   7.993791   0.002042   0.005229   0.000027   0.000001
    21  N    0.203135   0.002042   7.263948  -0.054130   0.242387  -0.137078
    22  C    0.336092   0.005229  -0.054130   5.145694   0.004213  -0.000154
    23  C   -0.015892   0.000027   0.242387   0.004213   4.308142   0.362163
    24  C    0.006292   0.000001  -0.137078  -0.000154   0.362163   5.354352
    25  O    0.011549  -0.000005  -0.114451   0.000516   0.626754  -0.082085
    26  H    0.000285   0.012481  -0.000006  -0.000002  -0.000001  -0.000000
    27  H   -0.000000   0.000002  -0.000000   0.000000   0.000000  -0.000000
    28  H    0.000000   0.000000  -0.000000  -0.000000  -0.000000   0.000000
    29  H    0.000003   0.000000  -0.000066  -0.000000   0.000129  -0.000091
    30  H    0.000000   0.000000  -0.000000  -0.000000  -0.000000   0.000000
    31  H   -0.000000  -0.000000   0.000000  -0.000000  -0.000000  -0.000000
    32  H   -0.000000   0.000000   0.000000  -0.000000   0.000000   0.000000
    33  H    0.000000   0.000000   0.000000   0.000000   0.000000  -0.000000
    34  H    0.000000   0.000000   0.000000   0.000000  -0.000000   0.000000
    35  H    0.000000   0.000000   0.000000   0.000000   0.000000  -0.000000
    36  H    0.000000   0.000000   0.000000  -0.000000   0.000000   0.000000
    37  H   -0.000000   0.000000   0.000000   0.000000  -0.000000  -0.000000
    38  H   -0.000000  -0.000000  -0.000000  -0.000000   0.000000   0.000000
    39  H   -0.003906   0.002175  -0.002921   0.000145   0.011390  -0.000537
    40  H    0.376843   0.001241  -0.042456  -0.033194   0.000804   0.000489
    41  H   -0.029653  -0.000029   0.316080  -0.002278  -0.020824   0.000224
    42  H   -0.032829   0.000280  -0.001028   0.374234  -0.000042  -0.000027
    43  H   -0.024020   0.003626   0.003466   0.378199  -0.000039   0.000003
    44  H   -0.033224   0.001465  -0.003356   0.376839  -0.000064  -0.000003
    45  H   -0.000211   0.000000   0.001917  -0.000004  -0.023455   0.356564
    46  H   -0.000072  -0.000000   0.001993  -0.000012  -0.024517   0.357552
    47  H   -0.000099  -0.000000   0.004314   0.000002  -0.020855   0.367698
              25         26         27         28         29         30
     1  C    0.002320  -0.022404   0.002979   0.000884   0.000732   0.000092
     2  C    0.000020   0.354677  -0.034871   0.004756  -0.000041  -0.000001
     3  C   -0.000000  -0.044954   0.365224  -0.027788   0.000012   0.000328
     4  C    0.000000   0.006099  -0.036247   0.356932  -0.000102  -0.006042
     5  C   -0.000016   0.000422   0.003810  -0.047732  -0.004240  -0.029095
     6  C   -0.000791   0.006729   0.001307   0.005508  -0.013697   0.005443
     7  S   -0.004901  -0.000245   0.000025  -0.000252   0.254418  -0.000052
     8  N    0.000000   0.000002  -0.000172  -0.011696   0.001066   0.271874
     9  C    0.000000  -0.000000   0.000001   0.000484  -0.004773  -0.027534
    10  C    0.000000   0.000000  -0.000000  -0.000063   0.000120   0.006739
    11  O   -0.000000   0.000000  -0.000000   0.000003   0.004181   0.001820
    12  N    0.000000   0.000000  -0.000000   0.000014  -0.000000  -0.010486
    13  C    0.000000  -0.000000   0.000000   0.000000   0.000005   0.000138
    14  C    0.000000   0.000000   0.000000  -0.000058  -0.000000   0.001041
    15  C   -0.000000   0.000000  -0.000000  -0.000006  -0.000000   0.001702
    16  O   -0.000000   0.000000  -0.000000   0.001047   0.000000   0.042654
    17  N   -0.008366  -0.012227  -0.000149   0.000007   0.000355   0.000001
    18  C   -0.004579   0.003264  -0.000006  -0.000000  -0.000008  -0.000000
    19  C    0.011549   0.000285  -0.000000   0.000000   0.000003   0.000000
    20  O   -0.000005   0.012481   0.000002   0.000000   0.000000   0.000000
    21  N   -0.114451  -0.000006  -0.000000  -0.000000  -0.000066  -0.000000
    22  C    0.000516  -0.000002   0.000000  -0.000000  -0.000000  -0.000000
    23  C    0.626754  -0.000001   0.000000  -0.000000   0.000129  -0.000000
    24  C   -0.082085  -0.000000  -0.000000   0.000000  -0.000091   0.000000
    25  O    8.016176   0.000001  -0.000000   0.000000   0.000180   0.000000
    26  H    0.000001   0.500795  -0.006258  -0.000199   0.000001  -0.000001
    27  H   -0.000000  -0.006258   0.542961  -0.005851  -0.000000  -0.000050
    28  H    0.000000  -0.000199  -0.005851   0.540609   0.000000   0.012205
    29  H    0.000180   0.000001  -0.000000   0.000000   0.602956  -0.000009
    30  H    0.000000  -0.000001  -0.000050   0.012205  -0.000009   0.321487
    31  H   -0.000000   0.000000  -0.000000  -0.000014  -0.000005   0.000615
    32  H   -0.000000   0.000000   0.000000  -0.000001  -0.000001  -0.000039
    33  H    0.000000   0.000000   0.000000  -0.000000  -0.000015  -0.000007
    34  H   -0.000000  -0.000000  -0.000000  -0.000000   0.000000  -0.000007
    35  H    0.000000  -0.000000   0.000000   0.000000   0.000002   0.000004
    36  H    0.000000  -0.000000   0.000000  -0.000001  -0.000000  -0.000184
    37  H    0.000000  -0.000000   0.000000   0.000000   0.000000  -0.000011
    38  H   -0.000000  -0.000000  -0.000000   0.000002  -0.000000  -0.000015
    39  H    0.011113  -0.000143   0.000004   0.000000  -0.002164   0.000000
    40  H    0.006548  -0.000014   0.000000   0.000000  -0.000000  -0.000000
    41  H    0.002878   0.000000   0.000000   0.000000  -0.000006   0.000000
    42  H   -0.000001   0.000000  -0.000000  -0.000000   0.000000   0.000000
    43  H    0.000004   0.000000  -0.000000  -0.000000   0.000000  -0.000000
    44  H   -0.000008  -0.000001   0.000000   0.000000  -0.000000  -0.000000
    45  H    0.001520  -0.000000  -0.000000   0.000000   0.000001   0.000000
    46  H    0.001066  -0.000000   0.000000   0.000000   0.000006  -0.000000
    47  H    0.002890   0.000000   0.000000  -0.000000   0.000007   0.000000
              31         32         33         34         35         36
     1  C   -0.000000   0.000000  -0.000000   0.000000   0.000000   0.000000
     2  C    0.000000   0.000000   0.000000   0.000000  -0.000000   0.000000
     3  C   -0.000001  -0.000000  -0.000000   0.000000   0.000000   0.000000
     4  C    0.000019  -0.000000   0.000000  -0.000000  -0.000000   0.000002
     5  C   -0.000243   0.000002  -0.000003   0.000001   0.000000  -0.000011
     6  C   -0.000024  -0.000006  -0.000003   0.000000   0.000001  -0.000001
[...]
 ,-0.00040979,-0.00549660,-0.00321996,-0.00104578,-0.01792814,-0.019323
 02,-0.00041715,0.20001850,-0.00000100,0.00000034,0.00004309,0.00001020
 ,-0.00001578,-0.00003030,0.00000825,0.00002367,0.00000558,0.00000115,-
 0.00000445,-0.00000446,-0.00000170,0.00000374,0.00000821,0.00000808,-0
 .00001138,-0.00001695,0.00000222,-0.00000277,0.00000615,0.00001142,-0.
 00000733,-0.00000718,-0.00001047,0.00001165,-0.00000231,-0.00000381,0.
 00000109,0.00000270,0.00001359,-0.00000293,-0.00000173,0.00000309,-0.0
 0000460,-0.00000340,-0.00000048,-0.00000029,-0.00000025,-0.00000302,0.
 00000080,0.00000258,0.00000040,0.00000082,0.00000010,0.00000160,-0.000
 00092,-0.00000297,0.00019584,0.00025705,-0.00021699,-0.00081814,-0.002
 01476,0.00203657,-0.01932748,-0.02119050,-0.00311368,0.00039604,0.0019
 1203,0.00113742,-0.00161599,0.00269924,-0.00044414,-0.13787170,-0.1858
 0898,-0.01016145,-0.00028069,-0.00116848,-0.00040835,0.00001730,0.0000
 1395,-0.00002987,0.00094028,0.00011224,0.00053612,0.00000079,0.0000194
 4,-0.00002750,0.00000054,0.00000126,-0.00000441,-0.00000135,0.00000236
 ,-0.00000140,-0.00000189,0.00000290,-0.00000807,-0.00000047,-0.0000001
 6,0.00000201,-0.00000016,0.00000007,-0.00000008,-0.00000101,0.00000293
 ,0.00000187,-0.00000054,0.00000037,0.00000001,0.00000004,-0.00000061,-
 0.00000011,0.00000043,0.00000028,-0.00000025,0.00000094,-0.00000008,0.
 00000063,0.00000012,0.00000008,0.00000043,0.00000014,0.00000011,-0.000
 00035,-0.00020348,0.00014116,0.00016938,0.00290494,-0.00251649,-0.0026
 8657,0.00107889,-0.00111062,0.00057787,-0.00453587,-0.00559192,-0.0009
 0011,0.00985512,0.01061217,0.00058880,0.14917888,0.20361466,0.00014251
 ,0.00008320,-0.00039474,-0.00004878,-0.00010056,0.00004923,0.00002358,
 0.00005367,-0.00003017,-0.00001245,0.00002100,0.00004419,0.00001681,-0
 .00004455,-0.00003770,-0.00001889,-0.00001717,0.00009548,-0.00001455,0
 .00002025,0.00002421,-0.00002082,0.00009634,0.00001963,0.00004507,-0.0
 0009183,0.00003994,-0.00000416,-0.00000624,-0.00000693,-0.00002928,0.0
 0003723,-0.00002751,0.00000891,0.00001795,0.00001132,0.00000437,0.0000
 0282,0.00000484,-0.00002152,-0.00001556,0.00000207,0.00000551,-0.00000
 177,-0.00000319,0.00001658,0.00002237,0.00000387,-0.00001951,0.0013659
 4,0.00049140,-0.00131904,-0.00338299,0.00051394,-0.01441726,-0.0130881
 7,-0.00144023,0.00081845,0.00204134,-0.00046433,-0.00024501,0.00136018
 ,-0.00001022,-0.00811549,-0.00860052,-0.04910245,-0.00016584,-0.000056
 11,-0.00017801,0.00002626,-0.00001165,0.00002853,0.00037710,-0.0003797
 3,-0.00000208,0.00004476,0.00002639,-0.00008331,-0.00000111,-0.0000050
 8,-0.00000050,-0.00000409,0.00000824,0.00000451,0.00000677,0.00001618,
 -0.00000502,-0.00001166,-0.00000358,-0.00001560,0.00000076,0.00000086,
 -0.00000100,-0.00000005,-0.00000733,-0.00000131,0.00000016,-0.00000191
 ,-0.00000132,-0.00000089,0.00000398,0.00000078,0.00000063,-0.00000187,
 -0.00000074,-0.00000201,-0.00000056,0.00000030,-0.00000030,0.00000176,
 -0.00000021,0.,0.00000015,0.00000072,-0.00020191,-0.00000080,0.0003883
 0,0.00205357,-0.00234043,-0.00173151,0.00000366,0.00022409,0.00056441,
 0.02202786,0.02146519,0.00422510,-0.01065542,-0.01158683,-0.00147082,0
 .00970155,0.01289620,0.04849929,-0.00002785,0.00008431,0.00006573,0.00
 001257,0.00000031,-0.00003326,0.00000315,0.00001126,0.00000415,0.00000
 440,-0.00000470,-0.00001127,-0.00000093,0.00002689,0.00001726,0.000002
 28,-0.00004680,-0.00000849,-0.00000718,0.00000717,-0.00003101,0.000026
 08,-0.00002987,-0.00000711,-0.00003638,0.00004080,-0.00002228,-0.00000
 474,0.00000234,0.00000574,0.00003286,-0.00001275,0.00002055,0.00000280
 ,-0.00000963,-0.00000684,-0.00000042,-0.00000010,-0.00000272,0.0000011
 5,0.00000426,0.00000342,-0.00000095,0.00000125,0.00000050,-0.00000145,
 -0.00000486,-0.00000353,-0.00002663,0.00016787,-0.00007932,0.00015608,
 -0.00026742,-0.00016858,0.00001914,0.00001674,0.00019284,-0.00003095,0
 .00013199,0.00005912,0.00080476,0.00080095,0.00180601,0.00005311,-0.00
 000233,-0.00000504,-0.00533064,-0.02483354,-0.01237586,-0.08590632,-0.
 06551968,-0.06487467,-0.00620230,0.00293625,-0.00571310,0.00000001,-0.
 00000027,-0.00000224,0.00000218,0.00000073,-0.00000371,0.00000100,0.00
 000223,-0.00000264,-0.00002214,0.00001312,0.00000223,0.00000153,-0.000
 00083,0.00000555,0.00000037,0.00000002,0.00000057,-0.00000180,0.000006
 04,0.00000272,-0.00000193,-0.00000020,0.00000013,0.00000052,-0.0000013
 1,0.00000055,0.00000060,0.00000043,-0.00000082,0.00000246,-0.00000013,
 0.00000107,0.00000017,-0.00000013,0.00000053,0.00000034,-0.00000016,-0
 .00000086,-0.00002813,-0.00028068,0.00041874,0.00017934,-0.00012454,0.
 00004684,-0.00025494,0.00157256,-0.00113689,-0.00004242,-0.00000084,0.
 00001319,0.00000734,-0.00000411,0.00000784,-0.00000819,0.00003977,-0.0
 0001237,0.08926665,-0.00000683,-0.00000865,0.00001522,-0.00000003,0.00
 000486,-0.00000175,0.00000012,-0.00000344,0.00000057,0.00000230,0.0000
 0399,-0.00000356,-0.00000243,0.00000646,0.00001191,-0.00000762,-0.0000
 1473,-0.00000725,0.00000301,-0.00000289,-0.00000608,-0.00000756,0.0000
 1214,-0.00002211,0.00002793,-0.00000714,0.00004776,0.00000056,0.000002
 98,0.00000121,-0.00001373,-0.00000006,-0.00005401,-0.00001610,-0.00000
 194,-0.00001622,-0.00000271,-0.00000237,0.00000525,0.00002088,-0.00001
 146,0.00002047,-0.00000320,0.00000099,0.00000028,-0.00000697,0.0000052
 6,-0.00001664,-0.00002285,0.00001847,-0.00002000,-0.00002060,-0.000050
 14,0.00005964,-0.00043286,0.00039798,0.00001032,0.00001216,0.00004916,
 -0.00002568,0.00032971,-0.00048072,0.00024509,-0.00002397,0.00004226,-
 0.00009618,0.00230915,0.00822496,0.00857045,-0.06864755,-0.17982180,-0
 .12081168,0.00375965,0.00127498,0.00170715,-0.00000101,-0.00000139,0.0
 0000253,0.00000076,0.00000233,-0.00000162,0.00000101,0.00000002,-0.000
 00188,-0.00000332,0.00000834,0.00003250,0.00000266,0.00000129,0.000009
 00,-0.00000141,0.00000019,-0.00000127,0.00000154,0.00000364,0.00000740
 ,0.00000183,0.00000327,-0.00000012,-0.00000071,-0.00000188,-0.00000258
 ,-0.00000032,0.00000165,0.00000111,0.00000213,-0.00000119,0.00000135,0
 .00000046,0.00000084,0.00000147,-0.00000022,0.00000014,-0.00000140,0.0
 0004608,0.00002142,-0.00003079,-0.00000510,0.00016477,0.00001331,0.001
 21716,-0.00030330,0.00065525,-0.00000631,-0.00000129,0.00000740,-0.000
 01061,0.00001883,0.00001832,-0.00000199,-0.00000189,0.00000824,0.07253
 881,0.19130920,-0.00001594,0.00004115,0.00003442,0.00001144,-0.0000017
 9,-0.00001212,0.00001011,0.00000446,-0.00000713,0.00000772,0.00001118,
 -0.00000869,-0.00000593,0.00001070,0.00002628,-0.00000880,-0.00005770,
 -0.00000365,-0.00000687,0.00000237,-0.00002831,0.00000871,0.00001023,-
 0.00002512,0.00001126,0.00000445,0.00004086,-0.00000517,0.00000436,0.0
 0000422,0.00000436,-0.00000506,-0.00005063,-0.00000718,-0.00000778,-0.
 00001598,-0.00000259,-0.00000187,0.00000162,0.00001139,-0.00000582,0.0
 0001667,-0.00000201,0.00000186,0.00000024,-0.00000325,0.00000201,-0.00
 001331,-0.00002411,0.00016231,-0.00002037,0.00001010,-0.00032671,-0.00
 012068,-0.00000675,0.00029023,0.00013803,0.00005544,0.00019847,0.00001
 687,0.00097532,0.00064532,0.00094786,-0.00000322,-0.00001768,0.0000007
 0,0.00075862,-0.01483760,-0.00989092,-0.06600096,-0.11843621,-0.163605
 19,-0.00498026,0.00169678,-0.00086816,-0.00000846,0.00000280,-0.000007
 58,0.00000001,0.00000355,-0.00000659,-0.00000012,0.00000273,-0.0000038
 8,-0.00000977,0.00003491,0.00004264,0.00000069,0.00000060,0.00000928,-
 0.00000107,-0.00000054,-0.00000123,-0.00000016,0.00000731,0.00000598,0
 .00000046,0.00000300,0.00000012,-0.00000016,-0.00000198,-0.00000174,0.
 00000016,0.00000117,0.00000062,0.00000307,-0.00000053,0.00000156,0.000
 00035,0.00000034,0.00000097,-0.00000005,-0.00000020,-0.00000124,0.0000
 2548,-0.00019431,0.00026182,0.00020334,-0.00010506,0.00008509,-0.00092
 521,0.00131575,0.00003553,-0.00000558,-0.00000468,-0.00000379,0.000006
 44,0.00000863,-0.00000329,-0.00001193,0.00004242,-0.00000220,0.0726474
 3,0.13150228,0.17229268,-0.00008025,0.00000323,0.00011254,0.00002535,0
 .00001701,-0.00004017,-0.00000673,-0.00000084,0.00001812,0.00000230,-0
 .00001960,-0.00001796,-0.00000282,0.00001192,-0.00001635,0.00003709,0.
 00001899,-0.00003405,-0.00000407,-0.00000023,-0.00000347,0.00002294,-0
 .00004285,0.00002200,-0.00006011,0.00003753,-0.00007901,-0.00000081,-0
 .00000365,0.00000199,0.00003289,-0.00000331,0.00008879,0.00001844,-0.0
 0000161,0.00001446,0.00000287,0.00000265,-0.00000585,-0.00002255,0.000
 01378,-0.00001960,0.00000339,-0.00000062,0.00000001,0.00000699,-0.0000
 0821,0.00001415,0.00017796,-0.00006674,-0.00027353,-0.00044028,0.00016
 478,0.00037579,0.00052645,0.00055454,-0.00076460,0.00012450,0.00009866
 ,-0.00016808,-0.00138030,0.00038720,-0.00239148,0.00002226,-0.00000397
 ,-0.00003882,-0.01973655,0.00664352,0.02013466,-0.18973256,0.04945387,
 0.13158074,0.00275216,-0.00011280,-0.00306458,-0.00001090,-0.00000299,
 0.00001545,0.00000047,-0.00000076,-0.00000134,0.00000117,-0.00000183,0
 .00000149,-0.00000740,-0.00003566,-0.00006833,-0.00000134,-0.00000149,
 -0.00000680,0.00000140,0.00000069,0.00000204,-0.00000254,-0.00000212,-
 0.00000595,-0.00000172,-0.00000386,-0.00000015,0.00000047,0.00000119,0
 .00000282,0.00000066,-0.00000153,-0.00000060,-0.00000163,0.00000088,-0
 .00000105,-0.00000036,-0.00000073,-0.00000083,0.00000033,0.00000020,0.
 00000112,-0.00006103,-0.00003347,0.00016352,0.00004828,-0.00005794,0.0
 0003731,-0.00026812,0.00001380,0.00011695,0.00000243,-0.00000294,0.000
 01077,-0.00001922,0.00000987,0.00001293,0.00000135,0.00000705,0.000005
 65,0.01115162,-0.00306499,-0.00927778,0.20262167,0.00001750,0.00002234
 ,0.00005264,-0.00001755,-0.00000970,-0.00001383,-0.00000840,0.00000537
 ,0.00001524,-0.00000669,-0.00001354,0.00000362,0.00000045,0.00002791,0
 .00001959,-0.00000624,0.00001768,0.00000797,-0.00000970,-0.00000171,-0
 .00001980,0.00001854,-0.00005883,0.00000019,-0.00003376,0.00006440,-0.
 00003511,-0.00000254,0.00000615,0.00000327,0.00001706,-0.00004531,0.00
 003703,0.00000997,-0.00001638,0.00000156,0.00000068,0.00000069,-0.0000
 1084,-0.00000609,0.00001964,-0.00001494,-0.00000045,0.00000144,0.00000
 179,-0.00000391,-0.00001933,0.00000835,-0.00021893,0.00011195,0.000082
 17,0.00056185,-0.00015173,-0.00033426,-0.00060497,-0.00046713,0.000948
 70,-0.00017951,-0.00009408,0.00015214,0.00130943,-0.00097943,0.0023053
 7,-0.00002319,0.00003736,0.00001581,0.01045555,-0.00563081,-0.00893684
 ,0.05005318,-0.06200300,-0.04907835,-0.00190311,0.00008134,-0.00030039
 ,0.00001610,-0.00000606,-0.00000137,0.00000313,-0.00000266,0.00000288,
 0.00000179,-0.00000003,0.00000020,0.00000012,0.00001777,-0.00000561,0.
 00000606,0.00000150,0.00000537,0.00000156,-0.00000212,0.00000117,-0.00
 000363,0.00000581,-0.00000380,-0.00000432,-0.00000097,0.00000129,0.000
 00076,-0.00000227,0.00000198,-0.00000012,0.00000138,-0.00000084,0.0000
 0041,0.00000088,-0.00000042,-0.00000029,-0.00000158,-0.00000048,0.0000
 0028,-0.00000021,0.00000032,0.00010117,-0.00003393,0.00005736,-0.00002
 369,0.00006669,-0.00003698,0.00051043,0.00033846,-0.00075008,-0.000023
 92,-0.00000030,-0.00000349,0.00001715,-0.00000592,-0.00000137,0.000005
 00,-0.00000080,-0.00001591,0.01710893,-0.00533233,-0.01323256,-0.05626
 665,0.06552676,-0.00005730,0.00001775,0.00007033,0.00002058,0.00001575
 ,-0.00002656,-0.00000180,0.00000333,0.00001030,0.00000482,-0.00001303,
 -0.00001449,0.00000214,0.00001051,-0.00001557,0.00001578,-0.00001584,-
 0.00002277,0.00000683,0.00001281,0.00000801,0.00002223,-0.00002264,0.0
 0001930,-0.00005464,0.00001817,-0.00006791,-0.00000135,-0.00000633,0.0
 0000243,0.00004193,0.00001689,0.00007407,0.00001055,0.00000477,0.00000
 917,0.00000178,0.00000161,0.00000089,-0.00001332,0.00000172,-0.0000068
 1,0.00000244,-0.00000131,-0.00000087,0.00000690,0.00000273,0.00000599,
 0.00017126,-0.00004060,-0.00015841,-0.00031195,0.00013422,0.00021304,0
 .00038650,0.00042716,-0.00075142,0.00009869,0.00009242,-0.00011521,-0.
 00060935,0.00115456,-0.00128932,0.00005955,-0.00001475,-0.00002923,-0.
 01451768,0.00386838,0.01470996,0.12933540,-0.04813486,-0.16755740,0.00
 119054,0.00006345,-0.00145023,-0.00000802,-0.00000019,0.00001060,-0.00
 000028,-0.00000009,-0.00000135,0.00000002,-0.00000006,-0.00000014,-0.0
 0001044,-0.00002916,-0.00002385,-0.00000398,-0.00000377,-0.00000656,0.
 00000066,0.00000223,0.00000160,-0.00000054,-0.00000338,-0.00000090,-0.
 00000081,-0.00000358,-0.00000091,0.00000065,0.00000205,0.00000194,0.00
 000118,-0.00000193,-0.00000176,-0.00000043,0.00000004,-0.00000010,-0.0
 0000005,0.00000043,-0.00000014,0.00000036,0.00000022,0.00000027,-0.000
 03882,-0.00010430,0.00017605,0.00007776,-0.00002068,0.00003408,-0.0001
 3652,0.00028184,-0.00005161,-0.00000872,-0.00000049,0.00001459,-0.0000
 0986,-0.00000419,0.00000923,-0.00000176,0.00001138,0.00000059,0.014425
 86,-0.00298529,-0.01248468,-0.14118427,0.05061420,0.17955879,-0.000031
 34,-0.00002105,0.00005004,0.00001207,0.00000996,-0.00000963,0.00000041
 ,-0.00000189,0.00000374,0.00000330,-0.00000130,-0.00000634,-0.00000069
 ,-0.00000788,-0.00000474,0.00000341,0.00000276,-0.00001174,0.00000457,
 -0.00000349,0.00000324,-0.00000288,0.00000699,0.00000109,0.00000087,-0
 .00001062,-0.00000198,0.00000443,-0.00000281,-0.00000084,-0.00000027,0
 .00001305,0.00000216,-0.00000615,0.00000589,0.00000067,-0.00000087,-0.
 00000002,0.00000283,0.00000689,-0.00000288,0.00000162,-0.00000137,-0.0
 0000049,0.00000015,-0.00000229,0.00000236,0.00000012,0.00002732,-0.000
 08622,-0.00007671,0.00002734,-0.00007569,0.00036643,-0.00049476,0.0007
 5924,0.00109110,0.00003427,0.00003188,-0.00007568,-0.00445033,0.000500
 21,-0.00171217,-0.00037058,0.00008437,-0.00034278,0.00903275,0.0269368
 2,-0.01602685,-0.06526299,-0.06516303,0.03573809,0.00008218,-0.0018799
 6,0.00303498,-0.00000918,0.00000015,0.00000460,-0.00000071,0.00000102,
 -0.00000165,-0.00000073,-0.00000088,-0.00000009,-0.00000142,-0.0000077
 5,-0.00000088,-0.00000025,-0.00000010,-0.00000152,-0.00000063,0.000000
 76,0.00000011,0.00000243,-0.00000259,-0.00000079,0.00000224,-0.0000003
 7,-0.00000040,0.00000022,0.00000081,-0.00000032,-0.00000028,-0.0000010
 7,0.00000055,-0.00000017,0.00000073,-0.00000051,0.00000038,-0.00000040
 ,-0.00000061,-0.00000015,-0.00000014,0.00000009,0.00001512,0.00008057,
 -0.00004973,-0.00001807,0.00000889,-0.00003231,-0.00000265,-0.00001595
 ,-0.00039874,0.00000194,-0.00000286,0.00001817,-0.00004551,0.00013809,
 0.00009447,0.00001692,0.00000212,0.00001191,-0.00379624,-0.00796693,0.
 00656143,-0.00574413,-0.02086942,0.01108746,0.07096553,0.00000654,0.00
 003467,-0.00002392,-0.00000114,-0.00000886,0.00000435,0.00000579,0.000
 00472,-0.00000642,0.00000073,0.00000536,0.00000229,-0.00000162,-0.0000
 0115,0.00000236,-0.00000107,-0.00001507,0.00000982,-0.00000918,0.00000
 180,-0.00001340,0.00000550,0.00000372,0.00000199,-0.00000550,0.0000002
 6,-0.00000353,-0.00000357,0.00000037,0.00000071,0.00000547,-0.00000146
 ,0.00000372,0.00000705,-0.00000193,0.00000223,0.00000079,0.00000055,-0
 .00000204,-0.00000891,0.00000239,-0.00000337,0.00000164,0.00000021,-0.
 00000040,0.00000396,-0.00000029,0.00000292,-0.00003584,0.00012548,0.00
 004818,0.00000482,-0.00009893,-0.00030625,0.00015795,-0.00008298,-0.00
 048277,0.00000130,0.00004534,0.00007037,0.00240142,0.00003032,0.001488
 14,0.00018738,-0.00004700,0.00020012,-0.00271663,-0.01251813,0.0053530
 1,-0.06459677,-0.24007611,0.11767178,-0.00072610,0.00167255,-0.0022229
 5,0.00000023,0.00000265,-0.00000749,-0.00000036,-0.00000022,-0.0000012
 4,-0.00000048,0.00000148,-0.00000027,-0.00000179,0.00001091,0.00000450
 ,-0.00000184,-0.00000069,-0.00000150,0.00000042,-0.00000039,0.00000002
 ,-0.00000136,0.00000112,-0.00000109,-0.00000110,-0.00000032,0.00000013
 ,0.00000013,0.00000026,0.00000060,0.00000032,-0.00000023,-0.00000041,-
 0.00000003,0.00000001,0.00000010,-0.00000027,0.00000004,-0.00000016,0.
 00000009,-0.00000012,0.00000025,0.00004138,-0.00012284,0.00014760,0.00
 013687,-0.00011173,0.00008070,-0.00033540,0.00058738,0.00027136,-0.000
 00040,-0.00000682,-0.00001991,0.00002751,-0.00006265,-0.00005666,-0.00
 001691,0.00002134,-0.00001240,-0.00437015,-0.01553181,0.01122668,0.002
 30005,0.00852466,-0.00535215,0.06753911,0.25761213,-0.00003487,-0.0000
 3155,0.00013167,0.00000827,0.00000868,-0.00002989,-0.00000854,-0.00000
 263,0.00001886,0.00000078,-0.00001524,-0.00001083,-0.00000677,0.000015
 97,0.00001188,0.00001385,0.00003188,-0.00002108,-0.00000636,-0.0000126
 4,-0.00001628,0.00001777,-0.00005323,0.00000283,-0.00003704,0.00005348
 ,-0.00004416,-0.00000159,0.00000345,0.00000291,0.00001965,-0.00003045,
 0.00004193,0.00001389,-0.00001274,0.00000699,0.00000018,0.00000083,-0.
 00000986,-0.00001299,0.00002143,-0.00002041,0.00000085,0.00000108,0.00
 000168,-0.00000059,-0.00001924,0.00001287,-0.00000995,-0.00005896,-0.0
 0013635,-0.00001570,-0.00001277,0.00021547,0.00010350,0.00044004,0.000
 51157,0.00002310,0.00002693,-0.00007354,-0.00216753,-0.00033646,-0.001
 03853,-0.00021999,0.00001153,-0.00016898,0.00747480,0.01379691,-0.0080
 2928,0.03559717,0.11638854,-0.11917386,-0.00092164,-0.00202886,0.00166
 650,-0.00000350,-0.00000556,0.00001099,0.00000065,-0.00000017,-0.00000
 092,0.00000101,-0.00000180,0.00000009,0.00000747,0.00000517,-0.0000221
 2,0.00000340,0.00000158,0.00000173,0.00000093,-0.00000172,0.00000118,-
 0.00000268,0.00000341,-0.00000678,-0.00000232,-0.00000114,0.00000116,0
 .00000087,-0.00000121,0.00000188,-0.00000012,0.00000008,-0.00000009,-0
 .00000078,0.00000183,-0.00000138,-0.00000027,-0.00000211,-0.00000131,0
 .00000012,-0.00000018,0.00000113,0.00006030,0.00006621,-0.00001176,0.0
 0002877,-0.00000880,0.00001460,-0.00009344,0.00016454,-0.00006234,0.00
 001113,-0.00001425,0.00000099,-0.00001899,0.00007270,0.00004328,0.0000
 0980,0.00000335,-0.00000152,-0.00524596,-0.01884937,0.01322240,0.00473
 138,0.01845705,-0.01085304,-0.03931804,-0.12807562,0.12380971\\0.00000
 404,0.00000562,-0.00000668,-0.00000046,-0.00000564,0.00000507,0.000003
 41,-0.00000274,-0.00000151,0.00000004,0.00000111,0.00000242,0.00000061
 ,0.00000469,0.00000504,-0.00000082,-0.00000203,-0.00000206,-0.00000033
 ,-0.00000014,-0.00000208,0.00000268,-0.00000251,0.00000189,-0.00000584
 ,0.00000261,-0.00000794,-0.00000048,0.00000274,0.00000340,0.00000386,-
 0.00000146,0.00000487,0.00000059,-0.00000070,-0.00000265,0.00000056,-0
 .00000120,-0.00000040,-0.00000106,0.00000423,-0.00000128,0.00000073,0.
 00000119,-0.00000252,0.00000100,-0.00000118,0.00000098,-0.00000146,0.0
 0000152,0.00000371,-0.00000453,-0.00000355,-0.00000444,0.00000213,0.00
 000118,-0.00000018,0.00000207,0.00000147,0.00000008,-0.00000023,-0.000
 00290,0.00000106,0.00000157,-0.00000090,-0.00000101,-0.00000134,0.0000
 0202,0.00000344,-0.00000419,0.00000002,0.00000204,-0.00000157,-0.00000
 033,-0.00000080,0.00000172,0.00000072,0.00000048,0.00000187,0.00000019
 ,0.00000073,0.00000277,-0.00000052,0.00000068,0.00000010,-0.00000064,0
 .00000050,0.00000110,0.00000134,-0.00000070,0.00000142,0.00000002,-0.0
 0000035,-0.00000055,-0.00000003,-0.00000024,-0.00000089,-0.00000083,0.
 00000075,-0.00000077,-0.00000071,-0.00000016,0.00000016,-0.00000089,0.
 00000098,0.00000026,0.00000230,-0.00000068,-0.00000061,0.00000078,-0.0
 0000155,-0.00000028,0.00000164,-0.00000209,0.00000122,0.00000065,-0.00
 000011,-0.00000218,-0.00000048,-0.00000067,-0.00000090,-0.00000155,0.0
 0000137,-0.00000130,-0.00000006,0.00000061,-0.00000038,0.00000057,-0.0
 0000048,-0.00000003,-0.00000004,0.00000017,-0.00000089,-0.00000108,0.0
 0000060,-0.00000096,-0.00000212,0.00000019,-0.00000184,-0.00000234,-0.
 00000048\\\@
 The archive entry for this job was punched.


 BETTER TO HUNT IN FIELDS, FOR HEALTH UNBOUGHT
 THAN FEE THE DOCTOR FOR A NAUSEOUS DRAUGHT.
 THE WISE, FOR CURE, ON EXERCISE DEPEND;
 GOD NEVER MADE HIS WORK FOR MAN TO MEND.
     -- JOHN DRYDEN (1631-1700)
 Job cpu time:       0 days  2 hours 51 minutes 56.5 seconds.
 Elapsed time:       0 days  0 hours  2 minutes 53.4 seconds.
 File lengths (MBytes):  RWF=    930 Int=      0 D2E=      0 Chk=     15 Scr=      1
 Normal termination of Gaussian 16 at Mon Jun 24 11:59:43 2024.
