
                                 *****************
                                 * O   R   C   A *
                                 *****************

                                            #,                                       
                                            ###                                      
                                            ####                                     
                                            #####                                    
                                            ######                                   
                                           ########,                                 
                                     ,,################,,,,,                         
                               ,,#################################,,                 
                          ,,##########################################,,             
                       ,#########################################, ''#####,          
                    ,#############################################,,   '####,        
                  ,##################################################,,,,####,       
                ,###########''''           ''''###############################       
              ,#####''   ,,,,##########,,,,          '''####'''          '####       
            ,##' ,,,,###########################,,,                        '##       
           ' ,,###''''                  '''############,,,                           
         ,,##''                                '''############,,,,        ,,,,,,###''
      ,#''                                            '''#######################'''  
     '                                                          ''''####''''         
             ,#######,   #######,   ,#######,      ##                                
            ,#'     '#,  ##    ##  ,#'     '#,    #''#        ######   ,####,        
            ##       ##  ##   ,#'  ##            #'  '#       #        #'  '#        
            ##       ##  #######   ##           ,######,      #####,   #    #        
            '#,     ,#'  ##    ##  '#,     ,#' ,#      #,         ##   #,  ,#        
             '#######'   ##     ##  '#######'  #'      '#     #####' # '####'        



                  #######################################################
                  #                        -***-                        #
                  #          Department of theory and spectroscopy      #
                  #    Directorship and core code : Frank Neese         #
                  #        Max Planck Institute fuer Kohlenforschung    #
                  #                Kaiser Wilhelm Platz 1               #
                  #                 D-45470 Muelheim/Ruhr               #
                  #                      Germany                        #
                  #                                                     #
                  #                  All rights reserved                #
                  #                        -***-                        #
                  #######################################################


                         Program Version 5.0.4 -  RELEASE  -


 With contributions from (in alphabetic order):
   Daniel Aravena         : Magnetic Suceptibility
   Michael Atanasov       : Ab Initio Ligand Field Theory (pilot matlab implementation)
   Alexander A. Auer      : GIAO ZORA, VPT2 properties, NMR spectrum
   Ute Becker             : Parallelization
   Giovanni Bistoni       : ED, misc. LED, open-shell LED, HFLD
   Martin Brehm           : Molecular dynamics
   Dmytro Bykov           : SCF Hessian
   Vijay G. Chilkuri      : MRCI spin determinant printing, contributions to CSF-ICE
   Dipayan Datta          : RHF DLPNO-CCSD density
   Achintya Kumar Dutta   : EOM-CC, STEOM-CC
   Dmitry Ganyushin       : Spin-Orbit,Spin-Spin,Magnetic field MRCI
   Miquel Garcia          : C-PCM and meta-GGA Hessian, CC/C-PCM, Gaussian charge scheme
   Yang Guo               : DLPNO-NEVPT2, F12-NEVPT2, CIM, IAO-localization
   Andreas Hansen         : Spin unrestricted coupled pair/coupled cluster methods
   Benjamin Helmich-Paris : MC-RPA, TRAH-SCF, COSX integrals
   Lee Huntington         : MR-EOM, pCC
   Robert Izsak           : Overlap fitted RIJCOSX, COSX-SCS-MP3, EOM
   Marcus Kettner         : VPT2
   Christian Kollmar      : KDIIS, OOCD, Brueckner-CCSD(T), CCSD density, CASPT2, CASPT2-K
   Simone Kossmann        : Meta GGA functionals, TD-DFT gradient, OOMP2, MP2 Hessian
   Martin Krupicka        : Initial AUTO-CI
   Lucas Lang             : DCDCAS
   Marvin Lechner         : AUTO-CI (C++ implementation), FIC-MRCC
   Dagmar Lenk            : GEPOL surface, SMD
   Dimitrios Liakos       : Extrapolation schemes; Compound Job, initial MDCI parallelization
   Dimitrios Manganas     : Further ROCIS development; embedding schemes
   Dimitrios Pantazis     : SARC Basis sets
   Anastasios Papadopoulos: AUTO-CI, single reference methods and gradients
   Taras Petrenko         : DFT Hessian,TD-DFT gradient, ASA, ECA, R-Raman, ABS, FL, XAS/XES, NRVS
   Peter Pinski           : DLPNO-MP2, DLPNO-MP2 Gradient
   Christoph Reimann      : Effective Core Potentials
   Marius Retegan         : Local ZFS, SOC
   Christoph Riplinger    : Optimizer, TS searches, QM/MM, DLPNO-CCSD(T), (RO)-DLPNO pert. Triples
   Tobias Risthaus        : Range-separated hybrids, TD-DFT gradient, RPA, STAB
   Michael Roemelt        : Original ROCIS implementation
   Masaaki Saitow         : Open-shell DLPNO-CCSD energy and density
   Barbara Sandhoefer     : DKH picture change effects
   Avijit Sen             : IP-ROCIS
   Kantharuban Sivalingam : CASSCF convergence, NEVPT2, FIC-MRCI
   Bernardo de Souza      : ESD, SOC TD-DFT
   Georgi Stoychev        : AutoAux, RI-MP2 NMR, DLPNO-MP2 response
   Willem Van den Heuvel  : Paramagnetic NMR
   Boris Wezisla          : Elementary symmetry handling
   Frank Wennmohs         : Technical directorship


 We gratefully acknowledge several colleagues who have allowed us to
 interface, adapt or use parts of their codes:
   Stefan Grimme, W. Hujo, H. Kruse, P. Pracht,  : VdW corrections, initial TS optimization,
                  C. Bannwarth, S. Ehlert          DFT functionals, gCP, sTDA/sTD-DF
   Ed Valeev, F. Pavosevic, A. Kumar             : LibInt (2-el integral package), F12 methods
   Garnet Chan, S. Sharma, J. Yang, R. Olivares  : DMRG
   Ulf Ekstrom                                   : XCFun DFT Library
   Mihaly Kallay                                 : mrcc  (arbitrary order and MRCC methods)
   Jiri Pittner, Ondrej Demel                    : Mk-CCSD
   Frank Weinhold                                : gennbo (NPA and NBO analysis)
   Christopher J. Cramer and Donald G. Truhlar   : smd solvation model
   Lars Goerigk                                  : TD-DFT with DH, B97 family of functionals
   V. Asgeirsson, H. Jonsson                     : NEB implementation
   FAccTs GmbH                                   : IRC, NEB, NEB-TS, DLPNO-Multilevel, CI-OPT
                                                   MM, QMMM, 2- and 3-layer-ONIOM, Crystal-QMMM,
                                                   LR-CPCM, SF, NACMEs, symmetry and pop. for TD-DFT,
                                                   nearIR, NL-DFT gradient (VV10), updates on ESD,
                                                   ML-optimized integration grids
   S Lehtola, MJT Oliveira, MAL Marques          : LibXC Library
   Liviu Ungur et al                             : ANISO software


 Your calculation uses the libint2 library for the computation of 2-el integrals
 For citations please refer to: http://libint.valeyev.net

 Your ORCA version has been built with support for libXC version: 5.1.0
 For citations please refer to: https://tddft.org/programs/libxc/

 This ORCA versions uses:
   CBLAS   interface :  Fast vector & matrix operations
   LAPACKE interface :  Fast linear algebra routines
   SCALAPACK package :  Parallel linear algebra routines
   Shared memory     :  Shared parallel matrices
   BLAS/LAPACK       :  OpenBLAS 0.3.15  USE64BITINT DYNAMIC_ARCH NO_AFFINITY Prescott SINGLE_THREADED
        Core in use  :  Prescott
   Copyright (c) 2011-2014, The OpenBLAS Project


Your calculation utilizes the SMD solvation module
Please cite in your paper:
A.V. Marenich, C.J. Cramer, D.G. Truhlar J. Phys. Chem. B, 113, (2009), 6378 

XCFun DFT library Copyright 2009-2010 Ulf Ekstrom and contributors.
See http://admol.org/xcfun for more information.
This is free software; see the source code for copying conditions.
There is ABSOLUTELY NO WARRANTY; not even for MERCHANTABILITY or FITNESS FOR A PARTICULAR PURPOSE.
For details see the documentation.
Scientific users of this library should cite U. Ekstrom, L. Visscher, R. Bast, A. J. Thorvaldsen and K. Ruud;
J.Chem.Theor.Comp. 2010, DOI: 10.1021/ct100117s
XCFun Version 0.99 

================================================================================

----- Orbital basis set information -----
Your calculation utilizes the basis: def2-TZVPP
   F. Weigend and R. Ahlrichs, Phys. Chem. Chem. Phys. 7, 3297 (2005).

----- AuxJ basis set information -----
Your calculation utilizes the AutoAux generation procedure.
  G. L. Stoychev, A. A. Auer, F. Neese, J. Chem. Theory Comput. 13, 554 (2017)

----- AuxC basis set information -----
Your calculation utilizes the AutoAux generation procedure.
  G. L. Stoychev, A. A. Auer, F. Neese, J. Chem. Theory Comput. 13, 554 (2017)

----- AuxJK basis set information -----
Your calculation utilizes the AutoAux generation procedure.
  G. L. Stoychev, A. A. Auer, F. Neese, J. Chem. Theory Comput. 13, 554 (2017)

================================================================================
                                        WARNINGS
                       Please study these warnings very carefully!
================================================================================


WARNING: your system is open-shell and RHF/RKS was chosen
  ===> : WILL SWITCH to UHF/UKS


WARNING: Minnesota functionals are quite sensitive to the integration grid.
         see SE Wheeler, KN Houk, JCTC 2010, 6, 395,
             N Mardirossian, M Head-Gordon, JCTC 2016, 12, 4303.
         DEFGRID3 seems to be a minimum grid for reliable results with these functionals!
  ===> : Please increase the integration grid!


INFO   : the flag for use of the SHARK integral package has been found!

================================================================================
                                       INPUT FILE
================================================================================
NAME = TS-orca.inp
|  1> ! m062x RIJCOSX def2-TZVPP autoaux verytightSCF noautostart miniprint nopop
|  2> %maxcore  3500
|  3> %pal nprocs  32 end
|  4> %cpcm
|  5> smd true
|  6> SMDsolvent "MeCN"
|  7> end
|  8> * xyz 0 2
|  9>  C                 -0.02659900   -0.71040600   -0.90672100
| 10>  C                 -0.09819300   -1.14672900   -2.38809900
| 11>  C                 -1.56281900   -1.63812100   -2.61702100
| 12>  C                 -2.63801800   -0.63422500   -2.20277700
| 13>  C                 -1.09381700    0.30756300   -0.56435100
| 14>  H                 -1.68916900   -1.88088100   -3.67976600
| 15>  H                 -2.61012700    0.27337000   -2.81982200
| 16>  H                 -3.62806200   -1.08699700   -2.31209900
| 17>  H                 -0.99648100    1.20449000   -1.18008000
| 18>  H                 -1.02641600    0.60296300    0.47704800
| 19>  H                 -1.71316700   -2.56112100   -2.04400800
| 20>  C                  0.21425600    0.03278200   -3.33867600
| 21>  H                  1.27389200    0.30333000   -3.26924000
| 22>  H                  0.02057300   -0.27211200   -4.37388200
| 23>  H                 -0.37050200    0.93268700   -3.13923600
| 24>  C                  0.83190300   -2.30490500   -2.77789600
| 25>  H                  0.62936200   -2.59194900   -3.81626900
| 26>  H                  1.88443400   -2.00920000   -2.72121600
| 27>  H                  0.68391100   -3.18590100   -2.14748500
| 28>  C                  0.36715500   -1.61479500    0.18662700
| 29>  C                 -0.42574700   -1.72887900    1.35383500
| 30>  C                  1.58827600   -2.32577600    0.17037500
| 31>  C                 -0.03834700   -2.54390800    2.41203500
| 32>  H                 -1.35532400   -1.17934400    1.43259300
| 33>  C                  1.97462900   -3.14262300    1.22742800
| 34>  H                  2.27074200   -2.18136800   -0.65523800
| 35>  C                  1.15730900   -3.26287000    2.35362700
| 36>  H                 -0.67323500   -2.60954900    3.29119000
| 37>  H                  2.93192800   -3.65166100    1.17726300
| 38>  H                  1.46002800   -3.89350500    3.18468200
| 39>  S                 -3.69418800    0.51336800   -0.03072700
| 40>  O                 -4.28258200    1.55970600   -0.88122000
| 41>  O                 -3.19193000    0.87190900    1.30307600
| 42>  C                 -4.88111500   -0.81521900    0.10017500
| 43>  C                 -4.50285800   -2.02662600    0.68569900
| 44>  C                 -6.18216500   -0.60556800   -0.34887400
| 45>  C                 -5.45016200   -3.03539800    0.81598200
| 46>  H                 -3.47945500   -2.17756400    1.01062000
| 47>  C                 -7.12001800   -1.62840000   -0.20579100
| 48>  H                 -6.44223600    0.34169900   -0.80794300
| 49>  C                 -6.77191700   -2.85140600    0.37819800
| 50>  H                 -5.16294800   -3.98384700    1.26267300
| 51>  H                 -8.13668300   -1.47395100   -0.55703000
| 52>  C                 -7.79269800   -3.94842900    0.55145700
| 53>  H                 -8.11804800   -4.01852100    1.59733400
| 54>  H                 -8.68185400   -3.76857000   -0.06014000
| 55>  H                 -7.37983000   -4.92505900    0.27560200
| 56>  N                 -2.42555900   -0.30419000   -0.78655700
| 57>  C                  1.23249400    1.68256700    1.83593200
| 58>  C                  1.04909200    1.40092500    3.19629600
| 59>  C                  1.90156600    0.50232600    3.82971700
| 60>  C                  2.96325900   -0.08410400    3.14594200
| 61>  C                  3.15285400    0.18904600    1.79123000
| 62>  C                  2.26114100    1.03295300    1.10344700
| 63>  S                  2.35023900    1.20609000   -0.66764700
| 64>  N                  4.23702900   -0.42722500    1.12163900
| 65>  C                  5.19909500    0.26159700    0.43347300
| 66>  C                  6.24670900   -0.65912600   -0.23516800
| 67>  O                  5.25011500    1.47797600    0.33487300
| 68>  N                  5.61495200   -1.55588200   -1.20528900
| 69>  C                  7.34237900    0.15771300   -0.90683900
| 70>  C                  5.07595100   -2.75019800   -0.85647600
| 71>  C                  4.52467700   -3.59781700   -1.98602500
| 72>  O                  5.05084900   -3.13770400    0.31713000
| 73>  N                  0.40623200    2.57067800    1.13833200
| 74>  C                 -0.73972700    3.20650300    1.54703300
| 75>  C                 -1.47196100    3.94191900    0.40005500
| 76>  O                 -1.18713700    3.18919000    2.68334500
| 77>  N                 -0.54274400    4.41904200   -0.61975800
| 78>  C                 -2.34924000    5.06531300    0.94592100
| 79>  C                 -0.48039900    3.92771200   -1.89351100
| 80>  C                  0.60419100    4.52947000   -2.76659500
| 81>  O                 -1.20731600    3.01991400   -2.29216200
| 82>  H                  0.23760000    1.88224300    3.72271300
| 83>  H                  1.74790100    0.27618300    4.88069100
| 84>  H                  3.65626300   -0.74910400    3.65136100
| 85>  H                  1.20924000    0.28217700   -0.89441800
| 86>  H                  4.36094800   -1.43333200    1.21581900
| 87>  H                  6.66956500   -1.31063000    0.53704400
| 88>  H                  5.51263700   -1.22104300   -2.15305700
| 89>  H                  6.92158400    0.80754400   -1.68083800
| 90>  H                  8.09139500   -0.50426500   -1.35213000
| 91>  H                  7.82663800    0.80712700   -0.17451400
| 92>  H                  4.53207500   -3.09169500   -2.95585700
| 93>  H                  5.12149700   -4.51259700   -2.06014800
| 94>  H                  3.50055900   -3.89327900   -1.74328100
| 95>  H                  0.67424800    2.70104900    0.16880600
| 96>  H                 -2.10708800    3.20316800   -0.09960500
| 97>  H                  0.06475400    5.18873100   -0.37255500
| 98>  H                 -2.95014600    5.49368000    0.13910100
| 99>  H                 -3.00815400    4.66646200    1.71882600
|100>  H                 -1.74194300    5.85861400    1.39818500
|101>  H                  0.90349000    5.53492700   -2.45429800
|102>  H                  1.48414700    3.87698800   -2.72045200
|103>  H                  0.25246800    4.55624400   -3.79983000
|104> *
|105> 
|106>                          ****END OF INPUT****
================================================================================

                       ****************************
                       * Single Point Calculation *
                       ****************************

---------------------------------
CARTESIAN COORDINATES (ANGSTROEM)
---------------------------------
  C     -0.026599   -0.710406   -0.906721
  C     -0.098193   -1.146729   -2.388099
  C     -1.562819   -1.638121   -2.617021
  C     -2.638018   -0.634225   -2.202777
  C     -1.093817    0.307563   -0.564351
  H     -1.689169   -1.880881   -3.679766
  H     -2.610127    0.273370   -2.819822
  H     -3.628062   -1.086997   -2.312099
  H     -0.996481    1.204490   -1.180080
  H     -1.026416    0.602963    0.477048
  H     -1.713167   -2.561121   -2.044008
  C      0.214256    0.032782   -3.338676
  H      1.273892    0.303330   -3.269240
  H      0.020573   -0.272112   -4.373882
  H     -0.370502    0.932687   -3.139236
  C      0.831903   -2.304905   -2.777896
  H      0.629362   -2.591949   -3.816269
  H      1.884434   -2.009200   -2.721216
  H      0.683911   -3.185901   -2.147485
  C      0.367155   -1.614795    0.186627
  C     -0.425747   -1.728879    1.353835
  C      1.588276   -2.325776    0.170375
  C     -0.038347   -2.543908    2.412035
  H     -1.355324   -1.179344    1.432593
  C      1.974629   -3.142623    1.227428
  H      2.270742   -2.181368   -0.655238
  C      1.157309   -3.262870    2.353627
  H     -0.673235   -2.609549    3.291190
  H      2.931928   -3.651661    1.177263
  H      1.460028   -3.893505    3.184682
  S     -3.694188    0.513368   -0.030727
  O     -4.282582    1.559706   -0.881220
  O     -3.191930    0.871909    1.303076
  C     -4.881115   -0.815219    0.100175
  C     -4.502858   -2.026626    0.685699
  C     -6.182165   -0.605568   -0.348874
  C     -5.450162   -3.035398    0.815982
  H     -3.479455   -2.177564    1.010620
  C     -7.120018   -1.628400   -0.205791
  H     -6.442236    0.341699   -0.807943
  C     -6.771917   -2.851406    0.378198
  H     -5.162948   -3.983847    1.262673
  H     -8.136683   -1.473951   -0.557030
  C     -7.792698   -3.948429    0.551457
  H     -8.118048   -4.018521    1.597334
  H     -8.681854   -3.768570   -0.060140
  H     -7.379830   -4.925059    0.275602
  N     -2.425559   -0.304190   -0.786557
  C      1.232494    1.682567    1.835932
  C      1.049092    1.400925    3.196296
  C      1.901566    0.502326    3.829717
  C      2.963259   -0.084104    3.145942
  C      3.152854    0.189046    1.791230
  C      2.261141    1.032953    1.103447
  S      2.350239    1.206090   -0.667647
  N      4.237029   -0.427225    1.121639
  C      5.199095    0.261597    0.433473
  C      6.246709   -0.659126   -0.235168
  O      5.250115    1.477976    0.334873
  N      5.614952   -1.555882   -1.205289
  C      7.342379    0.157713   -0.906839
  C      5.075951   -2.750198   -0.856476
  C      4.524677   -3.597817   -1.986025
  O      5.050849   -3.137704    0.317130
  N      0.406232    2.570678    1.138332
  C     -0.739727    3.206503    1.547033
  C     -1.471961    3.941919    0.400055
  O     -1.187137    3.189190    2.683345
  N     -0.542744    4.419042   -0.619758
  C     -2.349240    5.065313    0.945921
  C     -0.480399    3.927712   -1.893511
  C      0.604191    4.529470   -2.766595
  O     -1.207316    3.019914   -2.292162
  H      0.237600    1.882243    3.722713
  H      1.747901    0.276183    4.880691
  H      3.656263   -0.749104    3.651361
  H      1.209240    0.282177   -0.894418
  H      4.360948   -1.433332    1.215819
  H      6.669565   -1.310630    0.537044
  H      5.512637   -1.221043   -2.153057
  H      6.921584    0.807544   -1.680838
  H      8.091395   -0.504265   -1.352130
  H      7.826638    0.807127   -0.174514
  H      4.532075   -3.091695   -2.955857
  H      5.121497   -4.512597   -2.060148
  H      3.500559   -3.893279   -1.743281
  H      0.674248    2.701049    0.168806
  H     -2.107088    3.203168   -0.099605
  H      0.064754    5.188731   -0.372555
  H     -2.950146    5.493680    0.139101
  H     -3.008154    4.666462    1.718826
  H     -1.741943    5.858614    1.398185
  H      0.903490    5.534927   -2.454298
  H      1.484147    3.876988   -2.720452
  H      0.252468    4.556244   -3.799830

----------------------------
CARTESIAN COORDINATES (A.U.)
----------------------------
  NO LB      ZA    FRAG     MASS         X           Y           Z
   0 C     6.0000    0    12.011   -0.050265   -1.342473   -1.713454
   1 C     6.0000    0    12.011   -0.185558   -2.167004   -4.512853
   2 C     6.0000    0    12.011   -2.953300   -3.095600   -4.945453
   3 C     6.0000    0    12.011   -4.985132   -1.198512   -4.162645
   4 C     6.0000    0    12.011   -2.067015    0.581210   -1.066469
   5 H     1.0000    0     1.008   -3.192067   -3.554350   -6.953750
   6 H     1.0000    0     1.008   -4.932425    0.516594   -5.328691
   7 H     1.0000    0     1.008   -6.856044   -2.054127   -4.369234
   8 H     1.0000    0     1.008   -1.883076    2.276156   -2.230028
   9 H     1.0000    0     1.008   -1.939645    1.139435    0.901490
  10 H     1.0000    0     1.008   -3.237416   -4.839817   -3.862615
  11 C     6.0000    0    12.011    0.404885    0.061949   -6.309183
  12 H     1.0000    0     1.008    2.407307    0.573211   -6.177968
  13 H     1.0000    0     1.008    0.038877   -0.514217   -8.265439
  14 H     1.0000    0     1.008   -0.700147    1.762523   -5.932296
  15 C     6.0000    0    12.011    1.572069   -4.355639   -5.249463
  16 H     1.0000    0     1.008    1.189322   -4.898074   -7.211703
  17 H     1.0000    0     1.008    3.561064   -3.796838   -5.142353
  18 H     1.0000    0     1.008    1.292404   -6.020480   -4.058159
  19 C     6.0000    0    12.011    0.693822   -3.051520    0.352674
  20 C     6.0000    0    12.011   -0.804545   -3.267108    2.558377
  21 C     6.0000    0    12.011    3.001407   -4.395080    0.321962
  22 C     6.0000    0    12.011   -0.072465   -4.807289    4.558086
  23 H     1.0000    0     1.008   -2.561191   -2.228637    2.707208
  24 C     6.0000    0    12.011    3.731508   -5.938697    2.319503
  25 H     1.0000    0     1.008    4.291081   -4.122188   -1.238220
  26 C     6.0000    0    12.011    2.186997   -6.165931    4.447710
  27 H     1.0000    0     1.008   -1.272230   -4.931333    6.219448
  28 H     1.0000    0     1.008    5.540541   -6.900639    2.224705
  29 H     1.0000    0     1.008    2.759053   -7.357658    6.018177
  30 S    16.0000    0    32.060   -6.981004    0.970125   -0.058066
  31 O     8.0000    0    15.999   -8.092907    2.947417   -1.665264
  32 O     8.0000    0    15.999   -6.031874    1.647669    2.462457
  33 C     6.0000    0    12.011   -9.223971   -1.540541    0.189303
  34 C     6.0000    0    12.011   -8.509168   -3.829768    1.295783
  35 C     6.0000    0    12.011  -11.682599   -1.144358   -0.659276
  36 C     6.0000    0    12.011  -10.299314   -5.736071    1.541983
  37 H     1.0000    0     1.008   -6.575217   -4.115000    1.909795
  38 C     6.0000    0    12.011  -13.454884   -3.077230   -0.388889
  39 H     1.0000    0     1.008  -12.174062    0.645718   -1.526791
  40 C     6.0000    0    12.011  -12.797069   -5.388376    0.714691
  41 H     1.0000    0     1.008   -9.756558   -7.528380    2.386106
  42 H     1.0000    0     1.008  -15.376103   -2.785364   -1.052634
  43 C     6.0000    0    12.011  -14.726065   -7.461449    1.042103
  44 H     1.0000    0     1.008  -15.340887   -7.593904    3.018524
  45 H     1.0000    0     1.008  -16.406326   -7.121565   -0.113648
  46 H     1.0000    0     1.008  -13.945858   -9.307013    0.520812
  47 N     7.0000    0    14.007   -4.583642   -0.574836   -1.486377
  48 C     6.0000    0    12.011    2.329076    3.179591    3.469409
  49 C     6.0000    0    12.011    1.982497    2.647365    6.040124
  50 C     6.0000    0    12.011    3.593439    0.949259    7.237116
  51 C     6.0000    0    12.011    5.599748   -0.158934    5.944969
  52 C     6.0000    0    12.011    5.958031    0.357245    3.384934
  53 C     6.0000    0    12.011    4.272937    1.951998    2.085213
  54 S    16.0000    0    32.060    4.441308    2.279180   -1.261670
  55 N     7.0000    0    14.007    8.006824   -0.807338    2.119591
  56 C     6.0000    0    12.011    9.824866    0.494347    0.819145
  57 C     6.0000    0    12.011   11.804569   -1.245568   -0.444403
  58 O     8.0000    0    15.999    9.921280    2.792970    0.632818
  59 N     7.0000    0    14.007   10.610722   -2.940191   -2.277666
  60 C     6.0000    0    12.011   13.875085    0.298034   -1.713677
  61 C     6.0000    0    12.011    9.592157   -5.197121   -1.618505
  62 C     6.0000    0    12.011    8.550400   -6.798889   -3.753043
  63 O     8.0000    0    15.999    9.544721   -5.929401    0.599289
  64 N     7.0000    0    14.007    0.767667    4.857877    2.151136
  65 C     6.0000    0    12.011   -1.397881    6.059413    2.923469
  66 C     6.0000    0    12.011   -2.781603    7.449147    0.755994
  67 O     8.0000    0    15.999   -2.243364    6.026696    5.070787
  68 N     7.0000    0    14.007   -1.025638    8.350779   -1.171173
  69 C     6.0000    0    12.011   -4.439420    9.572054    1.787532
  70 C     6.0000    0    12.011   -0.907823    7.422300   -3.578217
  71 C     6.0000    0    12.011    1.141756    8.559458   -5.228107
  72 O     8.0000    0    15.999   -2.281497    5.706810   -4.331558
  73 H     1.0000    0     1.008    0.448999    3.556924    7.034908
  74 H     1.0000    0     1.008    3.303054    0.521910    9.223169
  75 H     1.0000    0     1.008    6.909336   -1.415601    6.900072
  76 H     1.0000    0     1.008    2.285132    0.533237   -1.690205
  77 H     1.0000    0     1.008    8.240997   -2.708605    2.297565
  78 H     1.0000    0     1.008   12.603651   -2.476732    1.014866
  79 H     1.0000    0     1.008   10.417374   -2.307437   -4.068688
  80 H     1.0000    0     1.008   13.079898    1.526037   -3.176323
  81 H     1.0000    0     1.008   15.290521   -0.952923   -2.555155
  82 H     1.0000    0     1.008   14.790202    1.525249   -0.329784
  83 H     1.0000    0     1.008    8.564381   -5.842457   -5.585760
  84 H     1.0000    0     1.008    9.678227   -8.527572   -3.893116
  85 H     1.0000    0     1.008    6.615098   -7.357231   -3.294324
  86 H     1.0000    0     1.008    1.274144    5.104243    0.318997
  87 H     1.0000    0     1.008   -3.981819    6.053110   -0.188226
  88 H     1.0000    0     1.008    0.122367    9.805281   -0.704027
  89 H     1.0000    0     1.008   -5.574968   10.381551    0.262863
  90 H     1.0000    0     1.008   -5.684587    8.818335    3.248110
  91 H     1.0000    0     1.008   -3.291795   11.071176    2.642187
  92 H     1.0000    0     1.008    1.707349   10.459496   -4.637951
  93 H     1.0000    0     1.008    2.804631    7.326446   -5.140909
  94 H     1.0000    0     1.008    0.477095    8.610053   -7.180638



           ************************************************************
           *        Program running with 32 parallel MPI-processes    *
           *              working on a common directory               *
           ************************************************************
------------------------------------------------------------------------------
                   ___                                                        
                  /   \      - P O W E R E D   B Y -                         
                 /     \                                                     
                 |  |  |   _    _      __       _____    __    __             
                 |  |  |  | |  | |    /  \     |  _  \  |  |  /  |          
                  \  \/   | |  | |   /    \    | | | |  |  | /  /          
                 / \  \   | |__| |  /  /\  \   | |_| |  |  |/  /          
                |  |  |   |  __  | /  /__\  \  |    /   |      \           
                |  |  |   | |  | | |   __   |  |    \   |  |\   \          
                \     /   | |  | | |  |  |  |  | |\  \  |  | \   \       
                 \___/    |_|  |_| |__|  |__|  |_| \__\ |__|  \__/        
                                                                              
                      - O R C A' S   B I G   F R I E N D -                    
                                      &                                       
                       - I N T E G R A L  F E E D E R -                       
                                                                              
 v1 FN, 2020, v2 2021                                                         
------------------------------------------------------------------------------


Reading SHARK input file TS-orca.SHARKINP.tmp ... ok
----------------------
SHARK INTEGRAL PACKAGE
----------------------

Number of atoms                             ...     95
Number of basis functions                   ...   2185
Number of shells                            ...    821
Maximum angular momentum                    ...      3
Integral batch strategy                     ... SHARK/LIBINT Hybrid
RI-J (if used) integral strategy            ... SPLIT-RIJ (Revised 2003 algorithm where possible)
Printlevel                                  ...      1
Contraction scheme used                     ... SEGMENTED contraction
Coulomb Range Separation                    ... NOT USED
Exchange Range Separation                   ... NOT USED
Finite Nucleus Model                        ... NOT USED
Auxiliary Coulomb fitting basis             ... AVAILABLE
   # of basis functions in Aux-J            ...  11837
   # of shells in Aux-J                     ...   3437
   Maximum angular momentum in Aux-J        ...      4
Auxiliary J/K fitting basis                 ... AVAILABLE
   # of basis functions in Aux-JK           ...  11837
   # of shells in Aux-JK                    ...   3437
   Maximum angular momentum in Aux-JK       ...      4
Auxiliary Correlation fitting basis         ... AVAILABLE
   # of basis functions in Aux-C            ...  11837
   # of shells in Aux-C                     ...   3437
   Maximum angular momentum in Aux-C        ...      4
Auxiliary 'external' fitting basis          ... NOT available
Integral threshold                          ...     1.000000e-12
Primitive cut-off                           ...     1.000000e-14
Primitive pair pre-selection threshold      ...     1.000000e-14

Calculating pre-screening integrals         ... done (  0.1 sec) Dimension = 821
Organizing shell pair data                  ... done (  1.4 sec)
Shell pair information
Total number of shell pairs                 ...    337431
Shell pairs after pre-screening             ...    188291
Total number of primitive shell pairs       ...    929445
Primitive shell pairs kept                  ...    335622
          la=0 lb=0:  42821 shell pairs
          la=1 lb=0:  55563 shell pairs
          la=1 lb=1:  18320 shell pairs
          la=2 lb=0:  28550 shell pairs
          la=2 lb=1:  18857 shell pairs
          la=2 lb=2:   4621 shell pairs
          la=3 lb=0:   9555 shell pairs
          la=3 lb=1:   6392 shell pairs
          la=3 lb=2:   3074 shell pairs
          la=3 lb=3:    538 shell pairs

Calculating one electron integrals          ... done (  0.3 sec)
Calculating RI/J V-Matrix + Cholesky decomp.... done ( 12.1 sec)
Calculating RI/JK V-Matrix + Cholesky decomp... done ( 11.4 sec)
Calculating RI/C V-Matrix + Cholesky decomp.... done ( 11.5 sec)
Calculating Nuclear repulsion               ... done (  0.0 sec) ENN=   7655.844102273370 Eh

SHARK setup successfully completed in  38.7 seconds

Maximum memory used throughout the entire GTOINT-calculation: 346.1 MB


           ************************************************************
           *        Program running with 32 parallel MPI-processes    *
           *              working on a common directory               *
           ************************************************************

Diagonalization of the overlap matrix:
Smallest eigenvalue                        ... 3.922e-06
Time for diagonalization                   ...    0.570 sec
Threshold for overlap eigenvalues          ... 1.000e-08
Number of eigenvalues below threshold      ... 0
Time for construction of square roots      ...    0.830 sec
Total time needed                          ...    1.418 sec

Time for model grid setup =    0.622 sec

Loading Hartree-Fock densities                     ... done
Calculating cut-offs                               ... done
Initializing the effective Hamiltonian             ... done
Setting up the integral package (SHARK)            ... done
Starting the Coulomb interaction                   ... done (   1.3 sec)
Reading the grid                                   ... done
Mapping shells                                     ... done
Starting the XC term evaluation                    ... done (   0.5 sec)
  promolecular density results
     # of electrons  =    376.979891203
     EX              =   -329.318664801
     EC              =    -12.905510860
     EX+EC           =   -342.224175662
Transforming the Hamiltonian                       ... done (   0.3 sec)
Diagonalizing the Hamiltonian                      ... done (   0.6 sec)
Back transforming the eigenvectors                 ... done (   0.2 sec)
Now organizing SCF variables                       ... done
-------------------
DFT GRID GENERATION
-------------------

General Integration Accuracy     IntAcc      ... 4.388
Radial Grid Type                 RadialGrid  ... OptM3 with GC (2021)
Angular Grid (max. ang.)         AngularGrid ... 4 (Lebedev-302)
Angular grid pruning method      GridPruning ... 4 (adaptive)
Weight generation scheme         WeightScheme... Becke
Basis function cutoff            BFCut       ... 1.0000e-12
Integration weight cutoff        WCut        ... 1.0000e-14
Angular grids for H and He will be reduced by one unit
Partially contracted basis set               ... off
Rotationally invariant grid construction     ... off

Total number of grid points                  ...   436685
Total number of batches                      ...     6871
Average number of points per batch           ...       63
Average number of grid points per atom       ...     4597
Time for grid setup =    2.458 sec

--------------------
COSX GRID GENERATION
--------------------

GRIDX 1
-------
General Integration Accuracy     IntAcc      ... 3.816
Radial Grid Type                 RadialGrid  ... OptM3 with GC (2021)
Angular Grid (max. ang.)         AngularGrid ... 1 (Lebedev-50)
Angular grid pruning method      GridPruning ... 4 (adaptive)
Weight generation scheme         WeightScheme... Becke
Basis function cutoff            BFCut       ... 1.0000e-12
Integration weight cutoff        WCut        ... 1.0000e-14
Angular grids for H and He will be reduced by one unit
Partially contracted basis set               ... on
Rotationally invariant grid construction     ... off

Total number of grid points                  ...    55177
Total number of batches                      ...      910
Average number of points per batch           ...       60
Average number of grid points per atom       ...      581
UseSFitting                                  ... on

GRIDX 2
-------
General Integration Accuracy     IntAcc      ... 4.020
Radial Grid Type                 RadialGrid  ... OptM3 with GC (2021)
Angular Grid (max. ang.)         AngularGrid ... 2 (Lebedev-110)
Angular grid pruning method      GridPruning ... 4 (adaptive)
Weight generation scheme         WeightScheme... Becke
Basis function cutoff            BFCut       ... 1.0000e-12
Integration weight cutoff        WCut        ... 1.0000e-14
Angular grids for H and He will be reduced by one unit
Partially contracted basis set               ... on
Rotationally invariant grid construction     ... off

Total number of grid points                  ...   117051
Total number of batches                      ...     1874
Average number of points per batch           ...       62
Average number of grid points per atom       ...     1232
UseSFitting                                  ... on

GRIDX 3
-------
General Integration Accuracy     IntAcc      ... 4.338
Radial Grid Type                 RadialGrid  ... OptM3 with GC (2021)
Angular Grid (max. ang.)         AngularGrid ... 3 (Lebedev-194)
Angular grid pruning method      GridPruning ... 4 (adaptive)
Weight generation scheme         WeightScheme... Becke
Basis function cutoff            BFCut       ... 1.0000e-12
Integration weight cutoff        WCut        ... 1.0000e-14
Angular grids for H and He will be reduced by one unit
Partially contracted basis set               ... on
Rotationally invariant grid construction     ... off

Total number of grid points                  ...   254732
Total number of batches                      ...     4030
Average number of points per batch           ...       63
Average number of grid points per atom       ...     2681
UseSFitting                                  ... on

Time for X-Grid setup             =   10.623 sec


--------------------
CPCM SOLVATION MODEL
--------------------
CPCM parameters:
  Epsilon                                         ...      35.6880
  Refrac                                          ...       1.3442
  Rsolv                                           ...       1.3000
  Surface type                                    ... GAUSSIAN VDW
  Epsilon function type                           ...         CPCM
Solvent:                                     ... MECN
SMD-CDS solvent descriptors:
  Soln                                       ...    1.3442
  Soln25                                     ...    1.3416
  Sola                                       ...    0.0700
  Solb                                       ...    0.3200
  Solg                                       ...   41.2500
  Solc                                       ...    0.0000
  Solh                                       ...    0.0000
Radii:
 Radius for C  used is    3.4960 Bohr (=   1.8500 Ang.)
 Radius for H  used is    2.2677 Bohr (=   1.2000 Ang.)
 Radius for S  used is    4.7054 Bohr (=   2.4900 Ang.)
 Radius for O  used is    4.0969 Bohr (=   2.1680 Ang.)
 Radius for N  used is    3.5716 Bohr (=   1.8900 Ang.)
Calculating surface                               ...        done! (  0.0s)
GEPOL surface points                              ...         4865
GEPOL Volume                                      ...    5259.1108
GEPOL Surface-area                                ...    2424.4312
Calculating surface distance matrix               ...        done! (  0.2s)
Performing Cholesky decomposition & store         ...        done! (  0.9s)
Overall time for CPCM initialization              ...                 1.1s
--------------
SCF ITERATIONS
--------------
ITER       Energy         Delta-E        Max-DP      RMS-DP      [F,P]     Damp
               ***  Starting incremental Fock matrix formation  ***
  0  -2919.5467729006   0.000000000000 0.08975798  0.00027242  0.1449031 0.7000
  1  -2920.1924094287  -0.645636528137 0.08419241  0.00022927  0.0699670 0.7000
                               ***Turning on DIIS***
  2  -2920.4855844078  -0.293174979072 0.17154289  0.00047956  0.0262908 0.0000
  3  -2920.9584948189  -0.472910411090 0.03983156  0.00014268  0.0340112 0.0000
  4  -2921.0406456816  -0.082150862717 0.01109557  0.00005021  0.0067092 0.0000
  5  -2921.0439376002  -0.003291918551 0.00612035  0.00002399  0.0039020 0.0000
  6  -2921.0446657374  -0.000728137232 0.00384388  0.00001165  0.0015364 0.0000
  7  -2921.0448515634  -0.000185825993 0.00286302  0.00001134  0.0009952 0.0000
               *** Restarting incremental Fock matrix formation ***
                                   *** Resetting DIIS ***
  8  -2921.0450299696  -0.000178406196 0.00312919  0.00002119  0.0005029 0.0000
  9  -2921.0450488854  -0.000018915799 0.00063953  0.00000173  0.0006774 0.0000
 10  -2921.0450593990  -0.000010513621 0.00130414  0.00000280  0.0001931 0.0000
 11  -2921.0450641872  -0.000004788172 0.00039666  0.00000096  0.0001014 0.0000
 12  -2921.0450647295  -0.000000542382 0.00017664  0.00000050  0.0000713 0.0000
 13  -2921.0450648452  -0.000000115648 0.00007178  0.00000020  0.0000239 0.0000
 14  -2921.0450648484  -0.000000003209 0.00006338  0.00000017  0.0000091 0.0000
 15  -2921.0450648463   0.000000002126 0.00005328  0.00000014  0.0000031 0.0000
 16  -2921.0450648368   0.000000009436 0.00005428  0.00000013  0.0000017 0.0000
 17  -2921.0450648280   0.000000008838 0.00003312  0.00000008  0.0000014 0.0000
 18  -2921.0450648258   0.000000002165 0.00001851  0.00000004  0.0000009 0.0000
 19  -2921.0450648608  -0.000000034954 0.00001153  0.00000003  0.0000006 0.0000
 20  -2921.0450648927  -0.000000031883 0.00000458  0.00000001  0.0000005 0.0000
 21  -2921.0450649101  -0.000000017385 0.00000266  0.00000001  0.0000003 0.0000
 22  -2921.0450649096   0.000000000500 0.00000249  0.00000001  0.0000001 0.0000
 23  -2921.0450649129  -0.000000003300 0.00000496  0.00000001  0.0000000 0.0000
 24  -2921.0450649265  -0.000000013634 0.00000335  0.00000001  0.0000000 0.0000
 25  -2921.0450649329  -0.000000006396 0.00000350  0.00000001  0.0000000 0.0000
                 **** Energy Check signals convergence ****

               *****************************************************
               *                     SUCCESS                       *
               *           SCF CONVERGED AFTER  26 CYCLES          *
               *****************************************************

Old exchange energy                            =   -181.283282786 Eh
New exchange energy                            =   -181.283386938 Eh
Exchange energy change after final integration =     -0.000104152 Eh
Total energy after final integration           =  -2921.045169084 Eh
Final COS-X integration done in                =    72.691 sec

SMD CDS free energy correction energy :                -6.60191     Kcal/mol
Total Energy after SMD CDS correction =             -2921.055689890 Eh
Total Energy       :        -2921.05568989 Eh          -79485.96631 eV
  Last Energy change         ...    3.6789e-10  Tolerance :   1.0000e-09
  Last MAX-Density change    ...    0.0000e+00  Tolerance :   1.0000e-08
             **** THE GBW FILE WAS UPDATED (TS-orca.gbw) ****
             **** DENSITY TS-orca.scfp WAS UPDATED ****
             **** ENERGY FILE WAS UPDATED (TS-orca.en.tmp) ****
----------------------
UHF SPIN CONTAMINATION
----------------------

Warning: in a DFT calculation there is little theoretical justification to 
         calculate <S**2> as in Hartree-Fock theory. We will do it anyways
         but you should keep in mind that the values have only limited relevance

Expectation value of <S**2>     :     0.764035
Ideal value S*(S+1) for S=0.5   :     0.750000
Deviation                       :     0.014035

             **** THE GBW FILE WAS UPDATED (TS-orca.gbw) ****
             **** DENSITY TS-orca.scfp WAS UPDATED ****
----------------
ORBITAL ENERGIES
----------------
                 SPIN UP ORBITALS
  NO   OCC          E(Eh)            E(eV) 
   0   1.0000     -90.108241     -2451.9699 
   1   1.0000     -89.900803     -2446.3252 
   2   1.0000     -19.627473      -534.0907 
   3   1.0000     -19.627196      -534.0832 
   4   1.0000     -19.608205      -533.5664 
   5   1.0000     -19.604609      -533.4685 
   6   1.0000     -19.600892      -533.3674 
   7   1.0000     -19.598536      -533.3033 
   8   1.0000     -14.785872      -402.3440 
   9   1.0000     -14.780437      -402.1961 
  10   1.0000     -14.778123      -402.1332 
  11   1.0000     -14.775562      -402.0635 
  12   1.0000     -14.775310      -402.0566 
  13   1.0000     -10.655910      -289.9621 
  14   1.0000     -10.651861      -289.8519 
  15   1.0000     -10.650471      -289.8140 
  16   1.0000     -10.649520      -289.7882 
  17   1.0000     -10.603380      -288.5326 
  18   1.0000     -10.596423      -288.3433 
  19   1.0000     -10.588008      -288.1143 
  20   1.0000     -10.587531      -288.1014 
  21   1.0000     -10.581790      -287.9451 
  22   1.0000     -10.577745      -287.8351 
  23   1.0000     -10.572533      -287.6933 
  24   1.0000     -10.569810      -287.6192 
  25   1.0000     -10.565954      -287.5142 
  26   1.0000     -10.564470      -287.4738 
  27   1.0000     -10.560804      -287.3741 
  28   1.0000     -10.560325      -287.3611 
  29   1.0000     -10.560252      -287.3591 
  30   1.0000     -10.558416      -287.3091 
  31   1.0000     -10.550026      -287.0808 
  32   1.0000     -10.549711      -287.0722 
  33   1.0000     -10.549070      -287.0548 
  34   1.0000     -10.544995      -286.9439 
  35   1.0000     -10.543921      -286.9147 
  36   1.0000     -10.543536      -286.9042 
  37   1.0000     -10.543427      -286.9012 
  38   1.0000     -10.542168      -286.8670 
  39   1.0000     -10.541985      -286.8620 
  40   1.0000     -10.538683      -286.7722 
  41   1.0000     -10.536512      -286.7131 
  42   1.0000     -10.534598      -286.6610 
  43   1.0000     -10.533172      -286.6222 
  44   1.0000     -10.529470      -286.5214 
  45   1.0000     -10.526653      -286.4448 
  46   1.0000     -10.525765      -286.4206 
  47   1.0000     -10.518912      -286.2341 
  48   1.0000     -10.518169      -286.2139 
  49   1.0000      -8.435641      -229.5455 
  50   1.0000      -8.258364      -224.7215 
  51   1.0000      -6.357568      -172.9982 
  52   1.0000      -6.356592      -172.9717 
  53   1.0000      -6.356410      -172.9667 
  54   1.0000      -6.180215      -168.1722 
  55   1.0000      -6.177080      -168.0869 
  56   1.0000      -6.173291      -167.9838 
  57   1.0000      -1.229717       -33.4623 
  58   1.0000      -1.173702       -31.9381 
  59   1.0000      -1.171162       -31.8689 
  60   1.0000      -1.163034       -31.6478 
  61   1.0000      -1.162507       -31.6334 
  62   1.0000      -1.120966       -30.5030 
  63   1.0000      -1.063783       -28.9470 
  64   1.0000      -1.052159       -28.6307 
  65   1.0000      -1.048770       -28.5385 
  66   1.0000      -1.036002       -28.1910 
  67   1.0000      -1.032589       -28.0982 
  68   1.0000      -0.978861       -26.6362 
  69   1.0000      -0.968369       -26.3507 
  70   1.0000      -0.953764       -25.9533 
  71   1.0000      -0.931558       -25.3490 
  72   1.0000      -0.890637       -24.2355 
  73   1.0000      -0.885967       -24.1084 
  74   1.0000      -0.880691       -23.9648 
  75   1.0000      -0.879211       -23.9246 
  76   1.0000      -0.870683       -23.6925 
  77   1.0000      -0.854845       -23.2615 
  78   1.0000      -0.844162       -22.9708 
  79   1.0000      -0.843196       -22.9445 
  80   1.0000      -0.834583       -22.7102 
  81   1.0000      -0.823571       -22.4105 
  82   1.0000      -0.816482       -22.2176 
  83   1.0000      -0.814940       -22.1756 
  84   1.0000      -0.795266       -21.6403 
  85   1.0000      -0.788546       -21.4574 
  86   1.0000      -0.770444       -20.9649 
  87   1.0000      -0.753934       -20.5156 
  88   1.0000      -0.744860       -20.2687 
  89   1.0000      -0.740787       -20.1578 
  90   1.0000      -0.725633       -19.7455 
  91   1.0000      -0.704989       -19.1837 
  92   1.0000      -0.703959       -19.1557 
  93   1.0000      -0.692781       -18.8515 
  94   1.0000      -0.689792       -18.7702 
  95   1.0000      -0.685361       -18.6496 
  96   1.0000      -0.675999       -18.3949 
  97   1.0000      -0.671598       -18.2751 
  98   1.0000      -0.670474       -18.2445 
  99   1.0000      -0.663410       -18.0523 
 100   1.0000      -0.656140       -17.8545 
 101   1.0000      -0.648003       -17.6331 
 102   1.0000      -0.625171       -17.0118 
 103   1.0000      -0.620162       -16.8755 
 104   1.0000      -0.615988       -16.7619 
 105   1.0000      -0.610490       -16.6123 
 106   1.0000      -0.595852       -16.2140 
 107   1.0000      -0.592255       -16.1161 
 108   1.0000      -0.575908       -15.6712 
 109   1.0000      -0.565775       -15.3955 
 110   1.0000      -0.564745       -15.3675 
 111   1.0000      -0.563988       -15.3469 
 112   1.0000      -0.556127       -15.1330 
 113   1.0000      -0.555877       -15.1262 
 114   1.0000      -0.548929       -14.9371 
 115   1.0000      -0.544747       -14.8233 
 116   1.0000      -0.542550       -14.7635 
 117   1.0000      -0.541712       -14.7407 
 118   1.0000      -0.537693       -14.6314 
 119   1.0000      -0.537413       -14.6237 
 120   1.0000      -0.533372       -14.5138 
 121   1.0000      -0.527934       -14.3658 
 122   1.0000      -0.522483       -14.2175 
 123   1.0000      -0.520619       -14.1668 
 124   1.0000      -0.519435       -14.1345 
 125   1.0000      -0.515369       -14.0239 
 126   1.0000      -0.511954       -13.9310 
 127   1.0000      -0.509747       -13.8709 
 128   1.0000      -0.507373       -13.8063 
 129   1.0000      -0.502976       -13.6867 
 130   1.0000      -0.499756       -13.5991 
 131   1.0000      -0.496805       -13.5188 
 132   1.0000      -0.492293       -13.3960 
 133   1.0000      -0.491093       -13.3633 
 134   1.0000      -0.487374       -13.2621 
 135   1.0000      -0.484492       -13.1837 
 136   1.0000      -0.479554       -13.0493 
 137   1.0000      -0.476846       -12.9756 
 138   1.0000      -0.473198       -12.8764 
 139   1.0000      -0.468356       -12.7446 
 140   1.0000      -0.467964       -12.7340 
 141   1.0000      -0.466392       -12.6912 
 142   1.0000      -0.463287       -12.6067 
 143   1.0000      -0.457453       -12.4479 
 144   1.0000      -0.451207       -12.2780 
 145   1.0000      -0.448104       -12.1935 
 146   1.0000      -0.447569       -12.1790 
 147   1.0000      -0.446130       -12.1398 
 148   1.0000      -0.442251       -12.0343 
 149   1.0000      -0.441360       -12.0100 
 150   1.0000      -0.439670       -11.9640 
 151   1.0000      -0.438067       -11.9204 
 152   1.0000      -0.435844       -11.8599 
 153   1.0000      -0.434692       -11.8286 
 154   1.0000      -0.432475       -11.7683 
 155   1.0000      -0.431799       -11.7498 
 156   1.0000      -0.429516       -11.6877 
 157   1.0000      -0.426734       -11.6120 
 158   1.0000      -0.421777       -11.4771 
 159   1.0000      -0.420877       -11.4526 
 160   1.0000      -0.419286       -11.4093 
 161   1.0000      -0.418023       -11.3750 
 162   1.0000      -0.411362       -11.1937 
 163   1.0000      -0.406326       -11.0567 
 164   1.0000      -0.404656       -11.0113 
 165   1.0000      -0.402438       -10.9509 
 166   1.0000      -0.399303       -10.8656 
 167   1.0000      -0.392100       -10.6696 
 168   1.0000      -0.387273       -10.5382 
 169   1.0000      -0.384024       -10.4498 
 170   1.0000      -0.381182       -10.3725 
 171   1.0000      -0.372773       -10.1437 
 172   1.0000      -0.369518       -10.0551 
 173   1.0000      -0.363578        -9.8935 
 174   1.0000      -0.359123        -9.7722 
 175   1.0000      -0.352855        -9.6017 
 176   1.0000      -0.342752        -9.3268 
 177   1.0000      -0.341142        -9.2829 
 178   1.0000      -0.330810        -9.0018 
 179   1.0000      -0.321440        -8.7468 
 180   1.0000      -0.319284        -8.6882 
 181   1.0000      -0.316494        -8.6122 
 182   1.0000      -0.315965        -8.5978 
 183   1.0000      -0.313500        -8.5308 
 184   1.0000      -0.309712        -8.4277 
 185   1.0000      -0.304757        -8.2929 
 186   1.0000      -0.295794        -8.0490 
 187   1.0000      -0.278994        -7.5918 
 188   1.0000      -0.232728        -6.3329 
 189   0.0000      -0.009397        -0.2557 
 190   0.0000      -0.004828        -0.1314 
 191   0.0000      -0.001351        -0.0368 
 192   0.0000       0.007957         0.2165 
 193   0.0000       0.018160         0.4942 
 194   0.0000       0.025007         0.6805 
 195   0.0000       0.044045         1.1985 
 196   0.0000       0.050014         1.3609 
 197   0.0000       0.056426         1.5354 
 198   0.0000       0.059964         1.6317 
 199   0.0000       0.065240         1.7753 
 200   0.0000       0.070780         1.9260 
 201   0.0000       0.072568         1.9747 
 202   0.0000       0.077571         2.1108 
 203   0.0000       0.086805         2.3621 
 204   0.0000       0.087873         2.3911 
 205   0.0000       0.089086         2.4241 
 206   0.0000       0.091562         2.4915 
 207   0.0000       0.096018         2.6128 
 208   0.0000       0.100256         2.7281 
 209   0.0000       0.103603         2.8192 
 210   0.0000       0.104962         2.8562 
 211   0.0000       0.109392         2.9767 
 212   0.0000       0.111908         3.0452 
 213   0.0000       0.112932         3.0730 
 214   0.0000       0.115485         3.1425 
 215   0.0000       0.117737         3.2038 
 216   0.0000       0.121462         3.3051 
 217   0.0000       0.122417         3.3311 
 218   0.0000       0.123535         3.3616 
 219   0.0000       0.127744         3.4761 
 220   0.0000       0.129000         3.5103 
 221   0.0000       0.135551         3.6885 
 222   0.0000       0.136760         3.7214 
 223   0.0000       0.139591         3.7985 
 224   0.0000       0.141484         3.8500 
 225   0.0000       0.141629         3.8539 
 226   0.0000       0.144948         3.9442 
 227   0.0000       0.147950         4.0259 
 228   0.0000       0.148498         4.0408 
 229   0.0000       0.150266         4.0889 
 230   0.0000       0.151289         4.1168 
 231   0.0000       0.152074         4.1381 
 232   0.0000       0.153934         4.1888 
 233   0.0000       0.157764         4.2930 
 234   0.0000       0.159026         4.3273 
 235   0.0000       0.160040         4.3549 
 236   0.0000       0.162867         4.4318 
 237   0.0000       0.163742         4.4556 
 238   0.0000       0.165714         4.5093 
 239   0.0000       0.166741         4.5373 
 240   0.0000       0.168014         4.5719 
 241   0.0000       0.169314         4.6073 
 242   0.0000       0.171102         4.6559 
 243   0.0000       0.174025         4.7355 
 244   0.0000       0.175817         4.7842 
 245   0.0000       0.178304         4.8519 
 246   0.0000       0.180359         4.9078 
 247   0.0000       0.183860         5.0031 
 248   0.0000       0.184179         5.0118 
 249   0.0000       0.186943         5.0870 
 250   0.0000       0.188987         5.1426 
 251   0.0000       0.191359         5.2072 
 252   0.0000       0.193313         5.2603 
 253   0.0000       0.194544         5.2938 
 254   0.0000       0.198064         5.3896 
 255   0.0000       0.199243         5.4217 
 256   0.0000       0.200961         5.4684 
 257   0.0000       0.202141         5.5005 
 258   0.0000       0.204039         5.5522 
 259   0.0000       0.207991         5.6597 
 260   0.0000       0.209793         5.7088 
 261   0.0000       0.212072         5.7708 
 262   0.0000       0.214223         5.8293 
 263   0.0000       0.214436         5.8351 
 264   0.0000       0.218089         5.9345 
 265   0.0000       0.219798         5.9810 
 266   0.0000       0.222249         6.0477 
 267   0.0000       0.226165         6.1543 
 268   0.0000       0.226415         6.1611 
 269   0.0000       0.230781         6.2799 
 270   0.0000       0.231286         6.2936 
 271   0.0000       0.232694         6.3319 
 272   0.0000       0.234028         6.3682 
 273   0.0000       0.235687         6.4134 
 274   0.0000       0.239234         6.5099 
 275   0.0000       0.242969         6.6115 
 276   0.0000       0.245221         6.6728 
 277   0.0000       0.246241         6.7006 
 278   0.0000       0.247958         6.7473 
 279   0.0000       0.249977         6.8022 
 280   0.0000       0.253485         6.8977 
 281   0.0000       0.254732         6.9316 
 282   0.0000       0.258874         7.0443 
 283   0.0000       0.260628         7.0920 
 284   0.0000       0.261287         7.1100 
 285   0.0000       0.264295         7.1918 
 286   0.0000       0.267121         7.2687 
 287   0.0000       0.271654         7.3921 
 288   0.0000       0.271807         7.3962 
 289   0.0000       0.272316         7.4101 
 290   0.0000       0.275841         7.5060 
 291   0.0000       0.278331         7.5738 
 292   0.0000       0.281801         7.6682 
 293   0.0000       0.284938         7.7536 
 294   0.0000       0.287770         7.8306 
 295   0.0000       0.290137         7.8950 
 296   0.0000       0.292383         7.9561 
 297   0.0000       0.292915         7.9706 
 298   0.0000       0.296934         8.0800 
 299   0.0000       0.298099         8.1117 
 300   0.0000       0.301518         8.2047 
 301   0.0000       0.304688         8.2910 
 302   0.0000       0.306973         8.3531 
 303   0.0000       0.308475         8.3940 
 304   0.0000       0.310262         8.4427 
 305   0.0000       0.313191         8.5224 
 306   0.0000       0.313709         8.5365 
 307   0.0000       0.314806         8.5663 
 308   0.0000       0.319046         8.6817 
 309   0.0000       0.323287         8.7971 
 310   0.0000       0.324440         8.8285 
 311   0.0000       0.325445         8.8558 
 312   0.0000       0.328587         8.9413 
 313   0.0000       0.330430         8.9915 
 314   0.0000       0.332923         9.0593 
 315   0.0000       0.333885         9.0855 
 316   0.0000       0.335363         9.1257 
 317   0.0000       0.338625         9.2144 
 318   0.0000       0.342428         9.3179 
 319   0.0000       0.345547         9.4028 
 320   0.0000       0.345819         9.4102 
 321   0.0000       0.349849         9.5199 
 322   0.0000       0.350241         9.5305 
 323   0.0000       0.350979         9.5506 
 324   0.0000       0.353577         9.6213 
 325   0.0000       0.353627         9.6227 
 326   0.0000       0.358966         9.7680 
 327   0.0000       0.362149         9.8546 
 328   0.0000       0.362542         9.8653 
 329   0.0000       0.366456         9.9718 
 330   0.0000       0.368442        10.0258 
 331   0.0000       0.368870        10.0375 
 332   0.0000       0.372616        10.1394 
 333   0.0000       0.376189        10.2366 
 334   0.0000       0.379362        10.3230 
 335   0.0000       0.382402        10.4057 
 336   0.0000       0.383338        10.4312 
 337   0.0000       0.386116        10.5067 
 338   0.0000       0.388944        10.5837 
 339   0.0000       0.391356        10.6493 
 340   0.0000       0.392602        10.6832 
 341   0.0000       0.397525        10.8172 
 342   0.0000       0.397775        10.8240 
 343   0.0000       0.400967        10.9109 
 344   0.0000       0.404902        11.0179 
 345   0.0000       0.405928        11.0459 
 346   0.0000       0.408106        11.1051 
 347   0.0000       0.408830        11.1248 
 348   0.0000       0.411694        11.2028 
 349   0.0000       0.412642        11.2286 
 350   0.0000       0.415027        11.2934 
 351   0.0000       0.415433        11.3045 
 352   0.0000       0.417116        11.3503 
 353   0.0000       0.420499        11.4423 
 354   0.0000       0.421847        11.4790 
 355   0.0000       0.422521        11.4974 
 356   0.0000       0.427251        11.6261 
 357   0.0000       0.429634        11.6909 
 358   0.0000       0.430836        11.7237 
 359   0.0000       0.433006        11.7827 
 360   0.0000       0.434747        11.8301 
 361   0.0000       0.436668        11.8823 
 362   0.0000       0.437841        11.9143 
 363   0.0000       0.439127        11.9493 
 364   0.0000       0.440507        11.9868 
 365   0.0000       0.441383        12.0106 
 366   0.0000       0.442725        12.0472 
 367   0.0000       0.446733        12.1562 
 368   0.0000       0.448500        12.2043 
 369   0.0000       0.449160        12.2223 
 370   0.0000       0.449706        12.2371 
 371   0.0000       0.452286        12.3073 
 372   0.0000       0.452789        12.3210 
 373   0.0000       0.456005        12.4085 
 374   0.0000       0.458728        12.4826 
 375   0.0000       0.460295        12.5253 
 376   0.0000       0.463168        12.6034 
 377   0.0000       0.464157        12.6304 
 378   0.0000       0.464872        12.6498 
 379   0.0000       0.467196        12.7130 
 380   0.0000       0.470214        12.7952 
 381   0.0000       0.471803        12.8384 
 382   0.0000       0.473214        12.8768 
 383   0.0000       0.474524        12.9125 
 384   0.0000       0.476444        12.9647 
 385   0.0000       0.477869        13.0035 
 386   0.0000       0.479745        13.0545 
 387   0.0000       0.480639        13.0788 
 388   0.0000       0.482203        13.1214 
 389   0.0000       0.483567        13.1585 
 390   0.0000       0.484374        13.1805 
 391   0.0000       0.486457        13.2372 
 392   0.0000       0.489168        13.3109 
 393   0.0000       0.490069        13.3355 
 394   0.0000       0.490181        13.3385 
 395   0.0000       0.492719        13.4076 
 396   0.0000       0.495286        13.4774 
 397   0.0000       0.497241        13.5306 
 398   0.0000       0.499229        13.5847 
 399   0.0000       0.499888        13.6026 
 400   0.0000       0.504265        13.7218 
 401   0.0000       0.505660        13.7597 
 402   0.0000       0.508319        13.8321 
 403   0.0000       0.509782        13.8719 
 404   0.0000       0.511551        13.9200 
 405   0.0000       0.512194        13.9375 
 406   0.0000       0.514520        14.0008 
 407   0.0000       0.515740        14.0340 
 408   0.0000       0.517947        14.0941 
 409   0.0000       0.520281        14.1576 
 410   0.0000       0.520826        14.1724 
 411   0.0000       0.525015        14.2864 
 412   0.0000       0.525471        14.2988 
 413   0.0000       0.529418        14.4062 
 414   0.0000       0.530331        14.4310 
 415   0.0000       0.534264        14.5381 
 416   0.0000       0.535721        14.5777 
 417   0.0000       0.538031        14.6406 
 418   0.0000       0.539644        14.6845 
 419   0.0000       0.542186        14.7536 
 420   0.0000       0.544033        14.8039 
 421   0.0000       0.545165        14.8347 
 422   0.0000       0.547965        14.9109 
 423   0.0000       0.549804        14.9609 
 424   0.0000       0.551880        15.0174 
 425   0.0000       0.553225        15.0540 
 426   0.0000       0.553637        15.0652 
 427   0.0000       0.558379        15.1943 
 428   0.0000       0.560284        15.2461 
 429   0.0000       0.561529        15.2800 
 430   0.0000       0.563553        15.3351 
 431   0.0000       0.565857        15.3978 
 432   0.0000       0.566863        15.4251 
 433   0.0000       0.570362        15.5203 
 434   0.0000       0.574578        15.6351 
 435   0.0000       0.576200        15.6792 
 436   0.0000       0.579295        15.7634 
 437   0.0000       0.580627        15.7997 
 438   0.0000       0.582111        15.8401 
 439   0.0000       0.584054        15.8929 
 440   0.0000       0.587832        15.9957 
 441   0.0000       0.589889        16.0517 
 442   0.0000       0.592891        16.1334 
 443   0.0000       0.595685        16.2094 
 444   0.0000       0.598362        16.2823 
 445   0.0000       0.600455        16.3392 
 446   0.0000       0.601762        16.3748 
 447   0.0000       0.602816        16.4034 
 448   0.0000       0.606007        16.4903 
 449   0.0000       0.606796        16.5118 
 450   0.0000       0.612218        16.6593 
 451   0.0000       0.614463        16.7204 
 452   0.0000       0.616293        16.7702 
 453   0.0000       0.618084        16.8189 
 454   0.0000       0.623095        16.9553 
 455   0.0000       0.625367        17.0171 
 456   0.0000       0.628350        17.0983 
 457   0.0000       0.632512        17.2115 
 458   0.0000       0.634115        17.2551 
 459   0.0000       0.638211        17.3666 
 460   0.0000       0.640347        17.4247 
 461   0.0000       0.642756        17.4903 
 462   0.0000       0.644219        17.5301 
 463   0.0000       0.647568        17.6212 
 464   0.0000       0.648877        17.6568 
 465   0.0000       0.650850        17.7105 
 466   0.0000       0.655561        17.8387 
 467   0.0000       0.656302        17.8589 
 468   0.0000       0.661401        17.9976 
 469   0.0000       0.664789        18.0898 
 470   0.0000       0.667452        18.1623 
 471   0.0000       0.671067        18.2607 
 472   0.0000       0.673174        18.3180 
 473   0.0000       0.674561        18.3557 
 474   0.0000       0.677979        18.4488 
 475   0.0000       0.678997        18.4765 
 476   0.0000       0.681334        18.5400 
 477   0.0000       0.688012        18.7217 
 478   0.0000       0.688307        18.7298 
 479   0.0000       0.690833        18.7985 
 480   0.0000       0.694562        18.9000 
 481   0.0000       0.696909        18.9639 
 482   0.0000       0.699837        19.0435 
 483   0.0000       0.700819        19.0703 
 484   0.0000       0.704063        19.1585 
 485   0.0000       0.704803        19.1787 
 486   0.0000       0.706080        19.2134 
 487   0.0000       0.709944        19.3186 
 488   0.0000       0.715798        19.4779 
 489   0.0000       0.716329        19.4923 
 490   0.0000       0.718540        19.5525 
 491   0.0000       0.721391        19.6301 
 492   0.0000       0.723773        19.6949 
 493   0.0000       0.726196        19.7608 
 494   0.0000       0.727527        19.7970 
 495   0.0000       0.729679        19.8556 
 496   0.0000       0.729727        19.8569 
 497   0.0000       0.734721        19.9928 
 498   0.0000       0.735414        20.0116 
 499   0.0000       0.739108        20.1122 
 500   0.0000       0.740556        20.1516 
 501   0.0000       0.743283        20.2258 
 502   0.0000       0.747050        20.3283 
 503   0.0000       0.748697        20.3731 
 504   0.0000       0.752921        20.4880 
 505   0.0000       0.754881        20.5414 
 506   0.0000       0.757990        20.6259 
 507   0.0000       0.761528        20.7222 
 508   0.0000       0.763743        20.7825 
 509   0.0000       0.767288        20.8790 
 510   0.0000       0.771121        20.9833 
 511   0.0000       0.772401        21.0181 
 512   0.0000       0.775262        21.0960 
 513   0.0000       0.775960        21.1150 
 514   0.0000       0.780125        21.2283 
 515   0.0000       0.782309        21.2877 
 516   0.0000       0.786281        21.3958 
 517   0.0000       0.786804        21.4100 
 518   0.0000       0.789733        21.4897 
 519   0.0000       0.791743        21.5444 
 520   0.0000       0.794601        21.6222 
 521   0.0000       0.799237        21.7483 
 522   0.0000       0.799925        21.7671 
 523   0.0000       0.805346        21.9146 
 524   0.0000       0.807114        21.9627 
 525   0.0000       0.811854        22.0917 
 526   0.0000       0.812695        22.1145 
 527   0.0000       0.814113        22.1532 
 528   0.0000       0.817965        22.2580 
 529   0.0000       0.819618        22.3029 
 530   0.0000       0.823514        22.4090 
 531   0.0000       0.825073        22.4514 
 532   0.0000       0.827392        22.5145 
 533   0.0000       0.829141        22.5621 
 534   0.0000       0.834382        22.7047 
 535   0.0000       0.836546        22.7636 
 536   0.0000       0.839423        22.8419 
 537   0.0000       0.842882        22.9360 
 538   0.0000       0.845131        22.9972 
 539   0.0000       0.845881        23.0176 
 540   0.0000       0.851728        23.1767 
 541   0.0000       0.853186        23.2164 
 542   0.0000       0.857920        23.3452 
 543   0.0000       0.860523        23.4160 
 544   0.0000       0.861360        23.4388 
 545   0.0000       0.863096        23.4860 
 546   0.0000       0.867202        23.5978 
 547   0.0000       0.869705        23.6659 
 548   0.0000       0.874207        23.7884 
 549   0.0000       0.875321        23.8187 
 550   0.0000       0.876728        23.8570 
 551   0.0000       0.879910        23.9436 
 552   0.0000       0.882693        24.0193 
 553   0.0000       0.884029        24.0557 
 554   0.0000       0.888006        24.1639 
 555   0.0000       0.890279        24.2257 
 556   0.0000       0.892468        24.2853 
 557   0.0000       0.897039        24.4097 
 558   0.0000       0.899399        24.4739 
 559   0.0000       0.900135        24.4939 
 560   0.0000       0.904482        24.6122 
 561   0.0000       0.906435        24.6654 
 562   0.0000       0.907430        24.6924 
 563   0.0000       0.909373        24.7453 
 564   0.0000       0.913865        24.8675 
 565   0.0000       0.916180        24.9305 
 566   0.0000       0.918311        24.9885 
 567   0.0000       0.923594        25.1323 
 568   0.0000       0.923952        25.1420 
 569   0.0000       0.925809        25.1925 
 570   0.0000       0.928812        25.2743 
 571   0.0000       0.931480        25.3469 
 572   0.0000       0.932385        25.3715 
 573   0.0000       0.935347        25.4521 
 574   0.0000       0.938631        25.5414 
 575   0.0000       0.940530        25.5931 
 576   0.0000       0.945625        25.7318 
 577   0.0000       0.947475        25.7821 
 578   0.0000       0.948626        25.8134 
 579   0.0000       0.949469        25.8364 
 580   0.0000       0.952173        25.9100 
 581   0.0000       0.955511        26.0008 
 582   0.0000       0.960908        26.1476 
 583   0.0000       0.963355        26.2142 
 584   0.0000       0.965934        26.2844 
 585   0.0000       0.968456        26.3530 
 586   0.0000       0.971482        26.4354 
 587   0.0000       0.973260        26.4837 
 588   0.0000       0.974124        26.5073 
 589   0.0000       0.979085        26.6422 
 590   0.0000       0.981062        26.6961 
 591   0.0000       0.984891        26.8002 
 592   0.0000       0.986399        26.8413 
 593   0.0000       0.988867        26.9084 
 594   0.0000       0.991244        26.9731 
 595   0.0000       0.991637        26.9838 
 596   0.0000       0.994149        27.0522 
 597   0.0000       0.997194        27.1350 
 598   0.0000       1.000776        27.2325 
 599   0.0000       1.001278        27.2462 
 600   0.0000       1.004256        27.3272 
 601   0.0000       1.007156        27.4061 
 602   0.0000       1.010857        27.5068 
 603   0.0000       1.012412        27.5491 
 604   0.0000       1.016989        27.6737 
 605   0.0000       1.017648        27.6916 
 606   0.0000       1.020126        27.7590 
 607   0.0000       1.023389        27.8478 
 608   0.0000       1.028654        27.9911 
 609   0.0000       1.032060        28.0838 
 610   0.0000       1.033719        28.1289 
 611   0.0000       1.034393        28.1473 
 612   0.0000       1.037213        28.2240 
 613   0.0000       1.038968        28.2717 
 614   0.0000       1.041973        28.3535 
 615   0.0000       1.044215        28.4145 
 616   0.0000       1.044927        28.4339 
 617   0.0000       1.048544        28.5323 
 618   0.0000       1.050929        28.5972 
 619   0.0000       1.054335        28.6899 
 620   0.0000       1.055586        28.7239 
 621   0.0000       1.061248        28.8780 
 622   0.0000       1.064371        28.9630 
 623   0.0000       1.068273        29.0692 
 624   0.0000       1.069306        29.0973 
 625   0.0000       1.070482        29.1293 
 626   0.0000       1.075120        29.2555 
 627   0.0000       1.077451        29.3189 
 628   0.0000       1.079203        29.3666 
 629   0.0000       1.080352        29.3979 
 630   0.0000       1.081707        29.4348 
 631   0.0000       1.085152        29.5285 
 632   0.0000       1.089455        29.6456 
 633   0.0000       1.089842        29.6561 
 634   0.0000       1.091671        29.7059 
 635   0.0000       1.094789        29.7907 
 636   0.0000       1.097151        29.8550 
 637   0.0000       1.102244        29.9936 
 638   0.0000       1.106134        30.0994 
 639   0.0000       1.110135        30.2083 
 640   0.0000       1.112536        30.2736 
 641   0.0000       1.116646        30.3855 
 642   0.0000       1.118988        30.4492 
 643   0.0000       1.120646        30.4943 
 644   0.0000       1.124444        30.5977 
 645   0.0000       1.125063        30.6145 
 646   0.0000       1.128176        30.6992 
 647   0.0000       1.131781        30.7973 
 648   0.0000       1.132297        30.8114 
 649   0.0000       1.134243        30.8643 
 650   0.0000       1.136220        30.9181 
 651   0.0000       1.137327        30.9482 
 652   0.0000       1.141042        31.0493 
 653   0.0000       1.142652        31.0932 
 654   0.0000       1.146152        31.1884 
 655   0.0000       1.148640        31.2561 
 656   0.0000       1.150098        31.2957 
 657   0.0000       1.153908        31.3994 
 658   0.0000       1.159734        31.5580 
 659   0.0000       1.160321        31.5739 
 660   0.0000       1.161799        31.6142 
 661   0.0000       1.165862        31.7247 
 662   0.0000       1.167267        31.7629 
 663   0.0000       1.169515        31.8241 
 664   0.0000       1.170988        31.8642 
 665   0.0000       1.174924        31.9713 
 666   0.0000       1.177453        32.0401 
 667   0.0000       1.184149        32.2223 
 668   0.0000       1.186709        32.2920 
 669   0.0000       1.190340        32.3908 
 670   0.0000       1.192673        32.4543 
 671   0.0000       1.193228        32.4694 
 672   0.0000       1.196305        32.5531 
 673   0.0000       1.198290        32.6071 
 674   0.0000       1.202550        32.7230 
 675   0.0000       1.203306        32.7436 
 676   0.0000       1.205654        32.8075 
 677   0.0000       1.207401        32.8551 
 678   0.0000       1.210209        32.9315 
 679   0.0000       1.212528        32.9946 
 680   0.0000       1.216788        33.1105 
 681   0.0000       1.217872        33.1400 
 682   0.0000       1.219826        33.1931 
 683   0.0000       1.226340        33.3704 
 684   0.0000       1.229109        33.4457 
 685   0.0000       1.231119        33.5004 
 686   0.0000       1.235532        33.6205 
 687   0.0000       1.238384        33.6982 
 688   0.0000       1.240109        33.7451 
 689   0.0000       1.244657        33.8688 
 690   0.0000       1.246476        33.9183 
 691   0.0000       1.247430        33.9443 
 692   0.0000       1.249772        34.0080 
 693   0.0000       1.250909        34.0390 
 694   0.0000       1.253823        34.1183 
 695   0.0000       1.256742        34.1977 
 696   0.0000       1.259677        34.2775 
 697   0.0000       1.263270        34.3753 
 698   0.0000       1.266693        34.4685 
 699   0.0000       1.269926        34.5565 
 700   0.0000       1.272273        34.6203 
 701   0.0000       1.273200        34.6455 
 702   0.0000       1.278587        34.7921 
 703   0.0000       1.279938        34.8289 
 704   0.0000       1.282679        34.9035 
 705   0.0000       1.284496        34.9529 
 706   0.0000       1.288887        35.0724 
 707   0.0000       1.291041        35.1310 
 708   0.0000       1.293790        35.2058 
 709   0.0000       1.295010        35.2390 
 710   0.0000       1.298525        35.3347 
 711   0.0000       1.301343        35.4113 
 712   0.0000       1.302926        35.4544 
 713   0.0000       1.303233        35.4628 
 714   0.0000       1.308373        35.6026 
 715   0.0000       1.314322        35.7645 
 716   0.0000       1.314469        35.7685 
 717   0.0000       1.317658        35.8553 
 718   0.0000       1.319341        35.9011 
 719   0.0000       1.321218        35.9522 
 720   0.0000       1.325606        36.0716 
 721   0.0000       1.327074        36.1115 
 722   0.0000       1.327386        36.1200 
 723   0.0000       1.331892        36.2426 
 724   0.0000       1.332448        36.2577 
 725   0.0000       1.337589        36.3977 
 726   0.0000       1.338105        36.4117 
 727   0.0000       1.344123        36.5754 
 728   0.0000       1.346839        36.6494 
 729   0.0000       1.348054        36.6824 
 730   0.0000       1.349387        36.7187 
 731   0.0000       1.353157        36.8213 
 732   0.0000       1.353700        36.8360 
 733   0.0000       1.356819        36.9209 
 734   0.0000       1.358870        36.9767 
 735   0.0000       1.360057        37.0090 
 736   0.0000       1.363610        37.1057 
 737   0.0000       1.369933        37.2778 
 738   0.0000       1.371755        37.3274 
 739   0.0000       1.376405        37.4539 
 740   0.0000       1.377776        37.4912 
 741   0.0000       1.379000        37.5245 
 742   0.0000       1.383224        37.6394 
 743   0.0000       1.384926        37.6857 
 744   0.0000       1.386237        37.7214 
 745   0.0000       1.387333        37.7513 
 746   0.0000       1.389898        37.8210 
 747   0.0000       1.393176        37.9102 
 748   0.0000       1.396515        38.0011 
 749   0.0000       1.397956        38.0403 
 750   0.0000       1.403286        38.1854 
 751   0.0000       1.406537        38.2738 
 752   0.0000       1.410543        38.3828 
 753   0.0000       1.412324        38.4313 
 754   0.0000       1.413555        38.4648 
 755   0.0000       1.418413        38.5970 
 756   0.0000       1.419813        38.6351 
 757   0.0000       1.424164        38.7535 
 758   0.0000       1.425197        38.7816 
 759   0.0000       1.425424        38.7878 
 760   0.0000       1.428695        38.8768 
 761   0.0000       1.429829        38.9076 
 762   0.0000       1.435052        39.0497 
 763   0.0000       1.435569        39.0638 
 764   0.0000       1.437890        39.1270 
 765   0.0000       1.438844        39.1529 
 766   0.0000       1.444702        39.3123 
 767   0.0000       1.446353        39.3573 
 768   0.0000       1.448215        39.4079 
 769   0.0000       1.450696        39.4754 
 770   0.0000       1.452711        39.5303 
 771   0.0000       1.457701        39.6661 
 772   0.0000       1.460232        39.7349 
 773   0.0000       1.461616        39.7726 
 774   0.0000       1.464650        39.8551 
 775   0.0000       1.466632        39.9091 
 776   0.0000       1.470017        40.0012 
 777   0.0000       1.473657        40.1002 
 778   0.0000       1.478433        40.2302 
 779   0.0000       1.479557        40.2608 
 780   0.0000       1.482050        40.3286 
 781   0.0000       1.483226        40.3606 
 782   0.0000       1.487293        40.4713 
 783   0.0000       1.491062        40.5739 
 784   0.0000       1.492276        40.6069 
 785   0.0000       1.495160        40.6854 
 786   0.0000       1.497128        40.7389 
 787   0.0000       1.500253        40.8240 
[...]
 1806   0.0000       4.735793       128.8675 
 1807   0.0000       4.737323       128.9091 
 1808   0.0000       4.745847       129.1411 
 1809   0.0000       4.747192       129.1777 
 1810   0.0000       4.749510       129.2407 
 1811   0.0000       4.752241       129.3150 
 1812   0.0000       4.753390       129.3463 
 1813   0.0000       4.758692       129.4906 
 1814   0.0000       4.759284       129.5067 
 1815   0.0000       4.764478       129.6480 
 1816   0.0000       4.766747       129.7098 
 1817   0.0000       4.771686       129.8442 
 1818   0.0000       4.774054       129.9086 
 1819   0.0000       4.781725       130.1174 
 1820   0.0000       4.782186       130.1299 
 1821   0.0000       4.791483       130.3829 
 1822   0.0000       4.794932       130.4767 
 1823   0.0000       4.800094       130.6172 
 1824   0.0000       4.801712       130.6612 
 1825   0.0000       4.805082       130.7529 
 1826   0.0000       4.810753       130.9072 
 1827   0.0000       4.816435       131.0619 
 1828   0.0000       4.820282       131.1665 
 1829   0.0000       4.822073       131.2153 
 1830   0.0000       4.826709       131.3414 
 1831   0.0000       4.829703       131.4229 
 1832   0.0000       4.835867       131.5906 
 1833   0.0000       4.838857       131.6720 
 1834   0.0000       4.844126       131.8154 
 1835   0.0000       4.850513       131.9892 
 1836   0.0000       4.858490       132.2062 
 1837   0.0000       4.859015       132.2205 
 1838   0.0000       4.864383       132.3666 
 1839   0.0000       4.869757       132.5128 
 1840   0.0000       4.876295       132.6907 
 1841   0.0000       4.880143       132.7954 
 1842   0.0000       4.883779       132.8944 
 1843   0.0000       4.897417       133.2655 
 1844   0.0000       4.900595       133.3520 
 1845   0.0000       4.902358       133.4000 
 1846   0.0000       4.912753       133.6828 
 1847   0.0000       4.926448       134.0555 
 1848   0.0000       4.932683       134.2251 
 1849   0.0000       4.939810       134.4191 
 1850   0.0000       4.942649       134.4963 
 1851   0.0000       4.947437       134.6266 
 1852   0.0000       4.952224       134.7569 
 1853   0.0000       4.953864       134.8015 
 1854   0.0000       4.961260       135.0027 
 1855   0.0000       4.964833       135.1000 
 1856   0.0000       4.968181       135.1911 
 1857   0.0000       4.971638       135.2852 
 1858   0.0000       4.979830       135.5081 
 1859   0.0000       4.982267       135.5744 
 1860   0.0000       4.985995       135.6758 
 1861   0.0000       4.988101       135.7331 
 1862   0.0000       4.992628       135.8563 
 1863   0.0000       4.993787       135.8879 
 1864   0.0000       5.003962       136.1647 
 1865   0.0000       5.014180       136.4428 
 1866   0.0000       5.022666       136.6737 
 1867   0.0000       5.036835       137.0592 
 1868   0.0000       5.040696       137.1643 
 1869   0.0000       5.044101       137.2570 
 1870   0.0000       5.048061       137.3647 
 1871   0.0000       5.052522       137.4861 
 1872   0.0000       5.054597       137.5426 
 1873   0.0000       5.061912       137.7416 
 1874   0.0000       5.065566       137.8411 
 1875   0.0000       5.076161       138.1294 
 1876   0.0000       5.078309       138.1878 
 1877   0.0000       5.085474       138.3828 
 1878   0.0000       5.089326       138.4876 
 1879   0.0000       5.090564       138.5213 
 1880   0.0000       5.095054       138.6435 
 1881   0.0000       5.104986       138.9137 
 1882   0.0000       5.106392       138.9520 
 1883   0.0000       5.110755       139.0707 
 1884   0.0000       5.115430       139.1979 
 1885   0.0000       5.117769       139.2616 
 1886   0.0000       5.119120       139.2983 
 1887   0.0000       5.125454       139.4707 
 1888   0.0000       5.130748       139.6147 
 1889   0.0000       5.135423       139.7420 
 1890   0.0000       5.140415       139.8778 
 1891   0.0000       5.144627       139.9924 
 1892   0.0000       5.151316       140.1744 
 1893   0.0000       5.152164       140.1975 
 1894   0.0000       5.161661       140.4559 
 1895   0.0000       5.165702       140.5659 
 1896   0.0000       5.168758       140.6491 
 1897   0.0000       5.175267       140.8262 
 1898   0.0000       5.176398       140.8569 
 1899   0.0000       5.178739       140.9207 
 1900   0.0000       5.181433       140.9940 
 1901   0.0000       5.184641       141.0812 
 1902   0.0000       5.188427       141.1843 
 1903   0.0000       5.191515       141.2683 
 1904   0.0000       5.192927       141.3067 
 1905   0.0000       5.195054       141.3646 
 1906   0.0000       5.200178       141.5041 
 1907   0.0000       5.202255       141.5606 
 1908   0.0000       5.203445       141.5930 
 1909   0.0000       5.207900       141.7142 
 1910   0.0000       5.209513       141.7580 
 1911   0.0000       5.213783       141.8743 
 1912   0.0000       5.214761       141.9009 
 1913   0.0000       5.216021       141.9351 
 1914   0.0000       5.219620       142.0331 
 1915   0.0000       5.223233       142.1314 
 1916   0.0000       5.224544       142.1671 
 1917   0.0000       5.230958       142.3416 
 1918   0.0000       5.233576       142.4128 
 1919   0.0000       5.240764       142.6084 
 1920   0.0000       5.243293       142.6773 
 1921   0.0000       5.250341       142.8690 
 1922   0.0000       5.256023       143.0237 
 1923   0.0000       5.257330       143.0592 
 1924   0.0000       5.264462       143.2533 
 1925   0.0000       5.269634       143.3940 
 1926   0.0000       5.274804       143.5347 
 1927   0.0000       5.276018       143.5678 
 1928   0.0000       5.277567       143.6099 
 1929   0.0000       5.281938       143.7288 
 1930   0.0000       5.284969       143.8113 
 1931   0.0000       5.288218       143.8997 
 1932   0.0000       5.290298       143.9563 
 1933   0.0000       5.292059       144.0043 
 1934   0.0000       5.293174       144.0346 
 1935   0.0000       5.295852       144.1074 
 1936   0.0000       5.296421       144.1229 
 1937   0.0000       5.300633       144.2376 
 1938   0.0000       5.305313       144.3649 
 1939   0.0000       5.307899       144.4353 
 1940   0.0000       5.309923       144.4903 
 1941   0.0000       5.312979       144.5735 
 1942   0.0000       5.316610       144.6723 
 1943   0.0000       5.319690       144.7561 
 1944   0.0000       5.320726       144.7843 
 1945   0.0000       5.323394       144.8569 
 1946   0.0000       5.324434       144.8852 
 1947   0.0000       5.330462       145.0492 
 1948   0.0000       5.333205       145.1239 
 1949   0.0000       5.335624       145.1897 
 1950   0.0000       5.336229       145.2062 
 1951   0.0000       5.345641       145.4623 
 1952   0.0000       5.349812       145.5758 
 1953   0.0000       5.351377       145.6184 
 1954   0.0000       5.351793       145.6297 
 1955   0.0000       5.353991       145.6895 
 1956   0.0000       5.361866       145.9038 
 1957   0.0000       5.364773       145.9829 
 1958   0.0000       5.367949       146.0693 
 1959   0.0000       5.376912       146.3132 
 1960   0.0000       5.377280       146.3232 
 1961   0.0000       5.381620       146.4413 
 1962   0.0000       5.388135       146.6186 
 1963   0.0000       5.397192       146.8651 
 1964   0.0000       5.402737       147.0160 
 1965   0.0000       5.403607       147.0396 
 1966   0.0000       5.408816       147.1814 
 1967   0.0000       5.413650       147.3129 
 1968   0.0000       5.417931       147.4294 
 1969   0.0000       5.421869       147.5366 
 1970   0.0000       5.425065       147.6235 
 1971   0.0000       5.428974       147.7299 
 1972   0.0000       5.429518       147.7447 
 1973   0.0000       5.431265       147.7922 
 1974   0.0000       5.437703       147.9674 
 1975   0.0000       5.444963       148.1650 
 1976   0.0000       5.452801       148.3783 
 1977   0.0000       5.455735       148.4581 
 1978   0.0000       5.459656       148.5648 
 1979   0.0000       5.465181       148.7151 
 1980   0.0000       5.472405       148.9117 
 1981   0.0000       5.479706       149.1104 
 1982   0.0000       5.483807       149.2220 
 1983   0.0000       5.493109       149.4751 
 1984   0.0000       5.494314       149.5079 
 1985   0.0000       5.496532       149.5682 
 1986   0.0000       5.497639       149.5984 
 1987   0.0000       5.507035       149.8540 
 1988   0.0000       5.511138       149.9657 
 1989   0.0000       5.513430       150.0281 
 1990   0.0000       5.519225       150.1857 
 1991   0.0000       5.526626       150.3871 
 1992   0.0000       5.532505       150.5471 
 1993   0.0000       5.537373       150.6796 
 1994   0.0000       5.541538       150.7929 
 1995   0.0000       5.542064       150.8072 
 1996   0.0000       5.544983       150.8866 
 1997   0.0000       5.546311       150.9228 
 1998   0.0000       5.550747       151.0435 
 1999   0.0000       5.557476       151.2266 
 2000   0.0000       5.559230       151.2743 
 2001   0.0000       5.564164       151.4086 
 2002   0.0000       5.565913       151.4562 
 2003   0.0000       5.573497       151.6626 
 2004   0.0000       5.574986       151.7031 
 2005   0.0000       5.578965       151.8114 
 2006   0.0000       5.581745       151.8870 
 2007   0.0000       5.582224       151.9000 
 2008   0.0000       5.587827       152.0525 
 2009   0.0000       5.589697       152.1034 
 2010   0.0000       5.592449       152.1783 
 2011   0.0000       5.593386       152.2038 
 2012   0.0000       5.596560       152.2902 
 2013   0.0000       5.602403       152.4491 
 2014   0.0000       5.607280       152.5818 
 2015   0.0000       5.612056       152.7118 
 2016   0.0000       5.618549       152.8885 
 2017   0.0000       5.619696       152.9197 
 2018   0.0000       5.627162       153.1229 
 2019   0.0000       5.630621       153.2170 
 2020   0.0000       5.637228       153.3968 
 2021   0.0000       5.638987       153.4446 
 2022   0.0000       5.641394       153.5101 
 2023   0.0000       5.653131       153.8295 
 2024   0.0000       5.658840       153.9849 
 2025   0.0000       5.666198       154.1851 
 2026   0.0000       5.675022       154.4252 
 2027   0.0000       5.684381       154.6799 
 2028   0.0000       5.687397       154.7620 
 2029   0.0000       5.696954       155.0220 
 2030   0.0000       5.703006       155.1867 
 2031   0.0000       5.704208       155.2194 
 2032   0.0000       5.711734       155.4242 
 2033   0.0000       5.716678       155.5587 
 2034   0.0000       5.727596       155.8558 
 2035   0.0000       5.732486       155.9889 
 2036   0.0000       5.734960       156.0562 
 2037   0.0000       5.740833       156.2160 
 2038   0.0000       5.749019       156.4388 
 2039   0.0000       5.758675       156.7015 
 2040   0.0000       5.761149       156.7688 
 2041   0.0000       5.772842       157.0870 
 2042   0.0000       5.775865       157.1693 
 2043   0.0000       5.777922       157.2253 
 2044   0.0000       5.780226       157.2880 
 2045   0.0000       5.797396       157.7552 
 2046   0.0000       5.800386       157.8365 
 2047   0.0000       5.818201       158.3213 
 2048   0.0000       5.833693       158.7429 
 2049   0.0000       5.837231       158.8391 
 2050   0.0000       5.855512       159.3366 
 2051   0.0000       5.864227       159.5737 
 2052   0.0000       5.872686       159.8039 
 2053   0.0000       5.919572       161.0797 
 2054   0.0000       5.929360       161.3461 
 2055   0.0000       5.961911       162.2318 
 2056   0.0000       5.980795       162.7457 
 2057   0.0000       5.982745       162.7988 
 2058   0.0000       5.995732       163.1522 
 2059   0.0000       6.001513       163.3095 
 2060   0.0000       6.005954       163.4303 
 2061   0.0000       6.013285       163.6298 
 2062   0.0000       6.021497       163.8533 
 2063   0.0000       6.065542       165.0518 
 2064   0.0000       6.087654       165.6535 
 2065   0.0000       6.100533       166.0039 
 2066   0.0000       6.122028       166.5889 
 2067   0.0000       6.134709       166.9339 
 2068   0.0000       6.144162       167.1911 
 2069   0.0000       6.164217       167.7369 
 2070   0.0000       6.172726       167.9684 
 2071   0.0000       6.180472       168.1792 
 2072   0.0000       6.208320       168.9370 
 2073   0.0000       6.234710       169.6551 
 2074   0.0000       6.284756       171.0169 
 2075   0.0000       6.334046       172.3582 
 2076   0.0000       6.361587       173.1076 
 2077   0.0000       6.362953       173.1448 
 2078   0.0000       6.380991       173.6356 
 2079   0.0000       6.397590       174.0873 
 2080   0.0000       6.406062       174.3178 
 2081   0.0000       6.419491       174.6832 
 2082   0.0000       6.433550       175.0658 
 2083   0.0000       6.440266       175.2485 
 2084   0.0000       6.449138       175.4900 
 2085   0.0000       6.453884       175.6191 
 2086   0.0000       6.462106       175.8429 
 2087   0.0000       6.479613       176.3192 
 2088   0.0000       6.526823       177.6039 
 2089   0.0000       6.547837       178.1757 
 2090   0.0000       6.566216       178.6758 
 2091   0.0000       6.574410       178.8988 
 2092   0.0000       6.607817       179.8079 
 2093   0.0000       6.639845       180.6794 
 2094   0.0000       6.648009       180.9015 
 2095   0.0000       6.653982       181.0640 
 2096   0.0000       6.687785       181.9839 
 2097   0.0000       6.700901       182.3408 
 2098   0.0000       6.725013       182.9969 
 2099   0.0000       6.764169       184.0624 
 2100   0.0000       6.772386       184.2860 
 2101   0.0000       6.773077       184.3048 
 2102   0.0000       6.801260       185.0717 
 2103   0.0000       6.803138       185.1228 
 2104   0.0000       6.822980       185.6627 
 2105   0.0000       6.826142       185.7488 
 2106   0.0000       6.860298       186.6782 
 2107   0.0000       6.866912       186.8582 
 2108   0.0000       6.900821       187.7809 
 2109   0.0000       6.901824       187.8082 
 2110   0.0000       6.932776       188.6504 
 2111   0.0000       6.946068       189.0121 
 2112   0.0000       6.967360       189.5915 
 2113   0.0000       7.004928       190.6138 
 2114   0.0000       7.063789       192.2155 
 2115   0.0000       7.098131       193.1500 
 2116   0.0000       7.108330       193.4275 
 2117   0.0000       7.120020       193.7456 
 2118   0.0000       7.131765       194.0652 
 2119   0.0000       7.136617       194.1972 
 2120   0.0000       7.144201       194.4036 
 2121   0.0000       7.155481       194.7105 
 2122   0.0000       7.165293       194.9775 
 2123   0.0000       7.168678       195.0697 
 2124   0.0000       7.189397       195.6334 
 2125   0.0000       7.192202       195.7098 
 2126   0.0000       7.496768       203.9974 
 2127   0.0000       7.519026       204.6031 
 2128   0.0000       7.815289       212.6648 
 2129   0.0000       7.854346       213.7276 
 2130   0.0000       9.285506       252.6715 
 2131   0.0000       9.516537       258.9581 
 2132   0.0000       9.609569       261.4897 
 2133   0.0000       9.649750       262.5830 
 2134   0.0000       9.701211       263.9834 
 2135   0.0000      10.012523       272.4546 
 2136   0.0000      20.588099       560.2307 
 2137   0.0000      22.453454       610.9896 
 2138   0.0000      22.683575       617.2514 
 2139   0.0000      22.833638       621.3349 
 2140   0.0000      23.081510       628.0798 
 2141   0.0000      23.090314       628.3194 
 2142   0.0000      23.173246       630.5761 
 2143   0.0000      23.178191       630.7106 
 2144   0.0000      23.187278       630.9579 
 2145   0.0000      23.213225       631.6640 
 2146   0.0000      23.248626       632.6273 
 2147   0.0000      23.258225       632.8885 
 2148   0.0000      23.267128       633.1307 
 2149   0.0000      23.297947       633.9694 
 2150   0.0000      23.302016       634.0801 
 2151   0.0000      23.318441       634.5270 
 2152   0.0000      23.331577       634.8845 
 2153   0.0000      23.336406       635.0159 
 2154   0.0000      23.353356       635.4771 
 2155   0.0000      23.389392       636.4577 
 2156   0.0000      23.443606       637.9330 
 2157   0.0000      23.449533       638.0942 
 2158   0.0000      23.455887       638.2671 
 2159   0.0000      23.531398       640.3219 
 2160   0.0000      23.579994       641.6443 
 2161   0.0000      23.591209       641.9494 
 2162   0.0000      23.631967       643.0585 
 2163   0.0000      23.669228       644.0724 
 2164   0.0000      23.689335       644.6196 
 2165   0.0000      23.690066       644.6395 
 2166   0.0000      23.769146       646.7913 
 2167   0.0000      23.777307       647.0134 
 2168   0.0000      23.780670       647.1049 
 2169   0.0000      23.827301       648.3738 
 2170   0.0000      23.920175       650.9011 
 2171   0.0000      23.955685       651.8673 
 2172   0.0000      24.060622       654.7228 
 2173   0.0000      24.170862       657.7226 
 2174   0.0000      33.024639       898.6461 
 2175   0.0000      33.140996       901.8124 
 2176   0.0000      33.179041       902.8476 
 2177   0.0000      33.240976       904.5329 
 2178   0.0000      33.266907       905.2386 
 2179   0.0000      44.085205      1199.6194 
 2180   0.0000      44.154241      1201.4980 
 2181   0.0000      44.211404      1203.0535 
 2182   0.0000      44.222839      1203.3646 
 2183   0.0000      44.243017      1203.9137 
 2184   0.0000      44.269615      1204.6375 
Total SCF time: 0 days 0 hours 21 min 18 sec 

Maximum memory used throughout the entire SCF-calculation: 1074.1 MB

-------------------------   --------------------
FINAL SINGLE POINT ENERGY     -2921.055689890231
-------------------------   --------------------


                            ***************************************
                            *     ORCA property calculations      *
                            ***************************************

                                    ---------------------
                                    Active property flags
                                    ---------------------
   (+) Dipole Moment


------------------------------------------------------------------------------
                       ORCA ELECTRIC PROPERTIES CALCULATION
------------------------------------------------------------------------------

Dipole Moment Calculation                       ... on
Quadrupole Moment Calculation                   ... off
Polarizability Calculation                      ... off
GBWName                                         ... TS-orca.gbw
Electron density                                ... TS-orca.scfp
The origin for moment calculation is the CENTER OF MASS  = (-0.007264,  0.040504  0.065861)

-------------
DIPOLE MOMENT
-------------
                                X             Y             Z
Electronic contribution:     -2.02584      12.58722      21.74228
Nuclear contribution   :      2.73868     -15.26981     -24.82946
                        -----------------------------------------
Total Dipole Moment    :      0.71283      -2.68259      -3.08718
                        -----------------------------------------
Magnitude (a.u.)       :      4.15152
Magnitude (Debye)      :     10.55231



--------------------
Rotational spectrum 
--------------------
 
Rotational constants in cm-1:     0.002886     0.001475     0.001265 
Rotational constants in MHz :    86.519326    44.221651    37.935920 

 Dipole components along the rotational axes: 
x,y,z [a.u.] :     0.704016     2.685248    -3.086888 
x,y,z [Debye]:     1.789466     6.825359    -7.846247 

 

Timings for individual modules:

Sum of individual times         ...     1326.089 sec (=  22.101 min)
GTO integral calculation        ...       45.809 sec (=   0.763 min)   3.5 %
SCF iterations                  ...     1280.279 sec (=  21.338 min)  96.5 %
                             ****ORCA TERMINATED NORMALLY****
TOTAL RUN TIME: 0 days 0 hours 22 minutes 11 seconds 802 msec
