      -----------------------------------------------------------      
     |                   =====================                   |     
     |                           x T B                           |     
     |                   =====================                   |     
     |                         S. Grimme                         |     
     |          Mulliken Center for Theoretical Chemistry        |     
     |                    University of Bonn                     |     
      -----------------------------------------------------------      

   * xtb version 6.6.1 (8d0f1dd) compiled by 'conda@1efc2f54142f' on 2023-08-01

   xtb is free software: you can redistribute it and/or modify it under
   the terms of the GNU Lesser General Public License as published by
   the Free Software Foundation, either version 3 of the License, or
   (at your option) any later version.
   
   xtb is distributed in the hope that it will be useful,
   but WITHOUT ANY WARRANTY; without even the implied warranty of
   MERCHANTABILITY or FITNESS FOR A PARTICULAR PURPOSE.  See the
   GNU Lesser General Public License for more details.
   
   Cite this work as:
   * C. Bannwarth, E. Caldeweyher, S. Ehlert, A. Hansen, P. Pracht,
     J. Seibert, S. Spicher, S. Grimme, WIREs Comput. Mol. Sci., 2020, 11,
     e01493. DOI: 10.1002/wcms.1493
   
   for GFN2-xTB:
   * C. Bannwarth, S. Ehlert and S. Grimme., J. Chem. Theory Comput., 2019,
     15, 1652-1671. DOI: 10.1021/acs.jctc.8b01176
   for GFN1-xTB:
   * S. Grimme, C. Bannwarth, P. Shushkov, J. Chem. Theory Comput., 2017,
     13, 1989-2009. DOI: 10.1021/acs.jctc.7b00118
   for GFN0-xTB:
   * P. Pracht, E. Caldeweyher, S. Ehlert, S. Grimme, ChemRxiv, 2019, preprint.
     DOI: 10.26434/chemrxiv.8326202.v1
   for GFN-FF:
   * S. Spicher and S. Grimme, Angew. Chem. Int. Ed., 2020, 59, 15665-15673.
     DOI: 10.1002/anie.202004239
   
   for ALPB and GBSA implicit solvation:
   * S. Ehlert, M. Stahn, S. Spicher, S. Grimme, J. Chem. Theory Comput.,
     2021, 17, 4250-4261. DOI: 10.1021/acs.jctc.1c00471
   
   for DFT-D4:
   * E. Caldeweyher, C. Bannwarth and S. Grimme, J. Chem. Phys., 2017,
     147, 034112. DOI: 10.1063/1.4993215
   * E. Caldeweyher, S. Ehlert, A. Hansen, H. Neugebauer, S. Spicher,
     C. Bannwarth and S. Grimme, J. Chem. Phys., 2019, 150, 154122.
     DOI: 10.1063/1.5090222
   * E. Caldeweyher, J.-M. Mewes, S. Ehlert and S. Grimme, Phys. Chem. Chem. Phys.
     2020, 22, 8499-8512. DOI: 10.1039/D0CP00502A
   
   for sTDA-xTB:
   * S. Grimme and C. Bannwarth, J. Chem. Phys., 2016, 145, 054103.
     DOI: 10.1063/1.4959605
   
   in the mass-spec context:
   * V. Asgeirsson, C. Bauer and S. Grimme, Chem. Sci., 2017, 8, 4879.
     DOI: 10.1039/c7sc00601b
   * J. Koopman and S. Grimme, ACS Omega 2019, 4, 12, 15120-15133.
     DOI: 10.1021/acsomega.9b02011
   
   for metadynamics refer to:
   * S. Grimme, J. Chem. Theory Comput., 2019, 155, 2847-2862
     DOI: 10.1021/acs.jctc.9b00143
   
   for SPH calculations refer to:
   * S. Spicher and S. Grimme, J. Chem. Theory Comput., 2021, 17, 1701-1714
     DOI: 10.1021/acs.jctc.0c01306
   
   with help from (in alphabetical order)
   P. Atkinson, C. Bannwarth, F. Bohle, G. Brandenburg, E. Caldeweyher
   M. Checinski, S. Dohm, S. Ehlert, S. Ehrlich, I. Gerasimov, C. Hölzer
   A. Katbashev, J. Koopman, C. Lavigne, S. Lehtola, F. März, M. Müller,
   F. Musil, H. Neugebauer, J. Pisarek, C. Plett, P. Pracht, F. Pultar,
   J. Seibert, P. Shushkov, S. Spicher, M. Stahn, M. Steiner, T. Strunk,
   J. Stückrath, T. Rose, and J. Unsleber
   
 * started run on 2024/06/20 at 21:02:05.363     

           -------------------------------------------------
          |                Calculation Setup                |
           -------------------------------------------------

          program call               : xtb combined_0.mol --gbsa toluene --opt --input fixed.inp --uhf 1
          coordinate file            : combined_0.mol
          omp threads                :                    32

   ID    Z sym.   atoms
    1    6 C      1-5, 12, 16, 20-23, 25, 27, 34-37, 39, 41, 44, 53-88
    2    1 H      6-11, 13-15, 17-19, 24, 26, 28-30, 38, 40, 42, 43, 45-47,
                  89-121, 123
    3   16 S      31, 122
    4    8 O      32, 33, 49-52
    5    7 N      48

           -------------------------------------------------
          |                 G F N 2 - x T B                 |
           -------------------------------------------------

        Reference                      10.1021/acs.jctc.8b01176
      * Hamiltonian:
        H0-scaling (s, p, d)           1.850000    2.230000    2.230000
        zeta-weighting                 0.500000
      * Dispersion:
        s8                             2.700000
        a1                             0.520000
        a2                             5.000000
        s9                             5.000000
      * Repulsion:
        kExp                           1.500000    1.000000
        rExp                           1.000000
      * Coulomb:
        alpha                          2.000000
        third order                    shell-resolved
        anisotropic                    true
        a3                             3.000000
        a5                             4.000000
        cn-shift                       1.200000
        cn-exp                         4.000000
        max-rad                        5.000000

      * Solvation model:               GBSA
        Solvent                        toluene
        Parameter file                 internal GFN2-xTB/GBSA
        Dielectric constant                7.0000E+00
        Reference state                gsolv [1 M gas/solution]
        Free energy shift                  4.5239E-03 Eh       2.8388E+00 kcal/mol
        Temperature                        2.9815E+02 K
        Density                            8.6700E-01 kg/L
        Solvent mass                       9.2140E+01 g/mol
        Interaction kernel             Still
        Born radius scaling (c1)           1.5686E+00
        Born radii integrator          GBOBC
        Born offset                        0.0000E+00 a0       0.0000E+00 AA
        H-bond correction              false
        Ion screening                  false
        Surface tension                    1.0000E-05 Eh       1.5569E+01 dyn/cm
        Grid points                               230 per atom
q/qsh data taken from xtbrestart
CAMM data taken from xtbrestart

          ...................................................
          :                      SETUP                      :
          :.................................................:
          :  # basis functions                 330          :
          :  # atomic orbitals                 328          :
          :  # shells                          190          :
          :  # electrons                       335          :
          :  max. iterations                   250          :
          :  Hamiltonian                  GFN2-xTB          :
          :  restarted?                       true          :
          :  GBSA solvation                   true          :
          :  PC potential                    false          :
          :  electronic temp.          300.0000000     K    :
          :  accuracy                    1.0000000          :
          :  -> integral cutoff          0.2500000E+02      :
          :  -> integral neglect         0.1000000E-07      :
          :  -> SCF convergence          0.1000000E-05 Eh   :
          :  -> wf. convergence          0.1000000E-03 e    :
          :  Broyden damping             0.4000000          :
          ...................................................

 iter      E             dE          RMSdq      gap      omega  full diag
   1   -185.2573572 -0.185257E+03  0.387E+00    1.67       0.0  T
   2   -185.2351219  0.222353E-01  0.239E+00    0.70       1.0  T
   3   -184.9716766  0.263445E+00  0.176E+00    1.14       1.0  T
   4   -185.3824586 -0.410782E+00  0.363E-01    1.72       1.0  T
   5   -185.3798974  0.256121E-02  0.303E-01    1.61       1.0  T
   6   -185.3798175  0.799089E-04  0.282E-01    1.70       1.0  T
   7   -185.3870672 -0.724972E-02  0.188E-01    1.67       1.0  T
   8   -185.3930071 -0.593989E-02  0.325E-02    1.71       1.0  T
   9   -185.3930695 -0.624596E-04  0.227E-02    1.70       1.0  T
  10   -185.3930836 -0.140472E-04  0.157E-02    1.70       1.0  T
  11   -185.3931139 -0.303336E-04  0.593E-03    1.70       1.5  T
  12   -185.3931179 -0.395680E-05  0.272E-03    1.70       3.3  T
  13   -185.3931182 -0.371680E-06  0.132E-03    1.70       6.8  T
  14   -185.3931184 -0.196895E-06  0.442E-04    1.70      20.4  T
  15   -185.3931184  0.235140E-07  0.474E-04    1.70      19.0  T

   *** convergence criteria satisfied after 15 iterations ***

         #    Occupation            Energy/Eh            Energy/eV
      -------------------------------------------------------------
         1        2.0000           -0.7688460             -20.9214
       ...           ...                  ...                  ...
       162        2.0000           -0.3796866             -10.3318
       163        2.0000           -0.3597514              -9.7893
       164        2.0000           -0.3551172              -9.6632
       165        2.0000           -0.3496299              -9.5139
       166        2.0000           -0.3337050              -9.0806
       167        1.7696           -0.3168190              -8.6211
       168        1.2304           -0.3145274              -8.5587 (HOMO)
       169                         -0.2521395              -6.8611 (LUMO)
       170                         -0.2411613              -6.5623
       171                         -0.2371447              -6.4530
       172                         -0.2321277              -6.3165
       173                         -0.2313669              -6.2958
       ...                                ...                  ...
       328                          1.1287923              30.7160
      -------------------------------------------------------------
                  HL-Gap            0.0623879 Eh            1.6977 eV
             Fermi-level           -0.2995033 Eh           -8.1499 eV

 SCC (total)                   0 d,  0 h,  0 min,  2.768 sec
 SCC setup                      ...        0 min,  0.030 sec (  1.093%)
 Dispersion                     ...        0 min,  0.027 sec (  0.990%)
 classical contributions        ...        0 min,  0.007 sec (  0.243%)
 integral evaluation            ...        0 min,  0.070 sec (  2.544%)
 iterations                     ...        0 min,  2.346 sec ( 84.772%)
 molecular gradient             ...        0 min,  0.200 sec (  7.226%)
 printout                       ...        0 min,  0.087 sec (  3.129%)

         :::::::::::::::::::::::::::::::::::::::::::::::::::::
         ::                     SUMMARY                     ::
         :::::::::::::::::::::::::::::::::::::::::::::::::::::
         :: total energy            -182.722694274279 Eh    ::
         :: total w/o Gsasa/hb      -182.670270527006 Eh    ::
         :: gradient norm              0.378032036590 Eh/a0 ::
         :: HOMO-LUMO gap              1.697661460399 eV    ::
         ::.................................................::
         :: SCC energy              -185.393118412698 Eh    ::
         :: -> isotropic ES            0.213641036908 Eh    ::
         :: -> anisotropic ES         -0.010921045498 Eh    ::
         :: -> anisotropic XC          0.096840819538 Eh    ::
         :: -> dispersion             -0.199962275622 Eh    ::
         :: -> Gsolv                  -0.080635030522 Eh    ::
         ::    -> Gelec               -0.028211283249 Eh    ::
         ::    -> Gsasa               -0.056947627145 Eh    ::
         ::    -> Ghb                  0.000000000000 Eh    ::
         ::    -> Gshift               0.004523879872 Eh    ::
         :: repulsion energy           2.659333829439 Eh    ::
         :: add. restraining           0.000000000000 Eh    ::
         :: total charge              -0.000000000001 e     ::
         :::::::::::::::::::::::::::::::::::::::::::::::::::::

      ----------------------------------------------------------- 
     |                   =====================                   |
     |                        A N C O P T                        |
     |                   =====================                   |
     |               Approximate Normal Coordinate               |
     |                Rational Function Optimizer                |
      ----------------------------------------------------------- 

          ...................................................
          :                      SETUP                      :
          :.................................................:
          :   optimization level            normal          :
          :   max. optcycles                   369          :
          :   ANC micro-cycles                  20          :
          :   degrees of freedom               357          :
          :.................................................:
          :   RF solver                   davidson          :
          :   write xtbopt.log                true          :
          :   linear?                        false          :
          :   energy convergence         0.5000000E-05 Eh   :
          :   grad. convergence          0.1000000E-02 Eh/α :
          :   maxmium RF displ.          1.0000000          :
          :   Hlow (freq-cutoff)         0.1000000E-01      :
          :   Hmax (freq-cutoff)         5.0000000          :
          :   S6 in model hess.         20.0000000          :
          ...................................................

generating ANC from model Hessian ...
Using Lindh-Hessian (1995)
 Shifting diagonal of input Hessian by    9.9003744466172466E-003
 Lowest  eigenvalues of input Hessian
   -0.000000   -0.000000    0.000000    0.000000    0.000000    0.000000
    0.000000    0.000000    0.000000    0.000000    0.000000    0.000000
    0.010000    0.010015    0.010073    0.010172    0.010279    0.010355
 Highest eigenvalues
    1.996873    2.018075    2.040420    2.069935    2.543643    3.351100


........................................................................
.............................. CYCLE    1 ..............................
........................................................................

 iter      E             dE          RMSdq      gap      omega  full diag
   1   -185.3931184 -0.185393E+03  0.261E-04    1.70       0.0  T
   2   -185.3931178  0.671669E-06  0.192E-03    1.70       4.7  T
   3   -185.3931184 -0.682540E-06  0.727E-05    1.70     124.0  T
   4   -185.3931184 -0.175845E-09  0.515E-05    1.70     175.0  T
     SCC iter.                  ...        0 min,  0.585 sec
     gradient                   ...        0 min,  0.163 sec
 * total energy  :  -182.7226943 Eh     change       -0.3560919E-07 Eh
   gradient norm :     0.3762325 Eh/α   predicted     0.0000000E+00 (-100.00%)
   displ. norm   :     0.7452978 α      lambda       -0.2585279E+00
   maximum displ.:     0.1981211 α      in ANC's #189, #184, #195, ...

........................................................................
.............................. CYCLE    2 ..............................
........................................................................

 iter      E             dE          RMSdq      gap      omega  full diag
   1   -185.6561510 -0.185656E+03  0.411E-01    1.80       0.0  T
   2   -185.6531474  0.300351E-02  0.321E-01    2.19       1.0  T
   3   -185.6621441 -0.899670E-02  0.209E-01    1.90       1.0  T
   4   -185.6650837 -0.293952E-02  0.732E-02    2.06       1.0  T
   5   -185.6653895 -0.305812E-03  0.382E-02    2.04       1.0  T
   6   -185.6654420 -0.525549E-04  0.177E-02    2.05       1.0  T
   7   -185.6654518 -0.975014E-05  0.853E-03    2.04       1.1  T
   8   -185.6654557 -0.389719E-05  0.424E-03    2.05       2.1  T
   9   -185.6654557 -0.440727E-07  0.218E-03    2.05       4.1  T
  10   -185.6654560 -0.275762E-06  0.834E-04    2.05      10.8  T
  11   -185.6654560 -0.259435E-07  0.410E-04    2.05      22.0  T
     SCC iter.                  ...        0 min,  2.322 sec
     gradient                   ...        0 min,  0.347 sec
 * total energy  :  -182.9277749 Eh     change       -0.2050806E+00 Eh
   gradient norm :     0.2256746 Eh/α   predicted    -0.2010713E+00 (  -1.95%)
   displ. norm   :     0.7068715 α      lambda       -0.1492527E+00
   maximum displ.:     0.1485492 α      in ANC's #189, #195, #184, ...

........................................................................
.............................. CYCLE    3 ..............................
........................................................................

 iter      E             dE          RMSdq      gap      omega  full diag
   1   -185.8577558 -0.185858E+03  0.263E-01    2.10       0.0  T
   2   -185.8589271 -0.117132E-02  0.168E-01    2.17       1.0  T
   3   -185.8592375 -0.310393E-03  0.100E-01    2.11       1.0  T
   4   -185.8597282 -0.490705E-03  0.256E-02    2.14       1.0  T
   5   -185.8597424 -0.141581E-04  0.139E-02    2.13       1.0  T
   6   -185.8597520 -0.960161E-05  0.612E-03    2.14       1.5  T
   7   -185.8597537 -0.168238E-05  0.264E-03    2.13       3.4  T
   8   -185.8597540 -0.278972E-06  0.162E-03    2.14       5.6  T
   9   -185.8597540 -0.774973E-07  0.758E-04    2.14      11.9  T
  10   -185.8597540 -0.105692E-07  0.312E-04    2.14      28.9  T
     SCC iter.                  ...        0 min,  2.322 sec
     gradient                   ...        0 min,  0.307 sec
 * total energy  :  -183.0477646 Eh     change       -0.1199897E+00 Eh
   gradient norm :     0.1392873 Eh/α   predicted    -0.1119147E+00 (  -6.73%)
   displ. norm   :     0.7272322 α      lambda       -0.9289113E-01
   maximum displ.:     0.1371200 α      in ANC's #86, #72, #99, ...

........................................................................
.............................. CYCLE    4 ..............................
........................................................................

 iter      E             dE          RMSdq      gap      omega  full diag
   1   -185.9729562 -0.185973E+03  0.194E-01    2.18       0.0  T
   2   -185.9735118 -0.555605E-03  0.112E-01    2.19       1.0  T
   3   -185.9735006  0.112307E-04  0.669E-02    2.17       1.0  T
   4   -185.9737213 -0.220724E-03  0.167E-02    2.18       1.0  T
   5   -185.9737283 -0.698110E-05  0.744E-03    2.18       1.2  T
   6   -185.9737295 -0.128374E-05  0.354E-03    2.18       2.5  T
   7   -185.9737303 -0.726229E-06  0.140E-03    2.18       6.5  T
   8   -185.9737303 -0.403959E-07  0.928E-04    2.18       9.7  T
   9   -185.9737303 -0.309788E-07  0.464E-04    2.18      19.4  T
     SCC iter.                  ...        0 min,  2.012 sec
     gradient                   ...        0 min,  0.243 sec
 * total energy  :  -183.1232956 Eh     change       -0.7553100E-01 Eh
   gradient norm :     0.0876699 Eh/α   predicted    -0.7100919E-01 (  -5.99%)
   displ. norm   :     0.7581944 α      lambda       -0.6069560E-01
   maximum displ.:     0.1649173 α      in ANC's #72, #26, #86, ...

........................................................................
.............................. CYCLE    5 ..............................
........................................................................

 iter      E             dE          RMSdq      gap      omega  full diag
   1   -186.0330824 -0.186033E+03  0.158E-01    2.21       0.0  T
   2   -186.0333818 -0.299429E-03  0.884E-02    2.22       1.0  T
   3   -186.0333458  0.360409E-04  0.476E-02    2.20       1.0  T
   4   -186.0334519 -0.106084E-03  0.122E-02    2.21       1.0  T
   5   -186.0334573 -0.549293E-05  0.474E-03    2.21       1.9  T
   6   -186.0334577 -0.335629E-06  0.206E-03    2.21       4.4  T
   7   -186.0334580 -0.268675E-06  0.672E-04    2.21      13.4  T
   8   -186.0334580 -0.468992E-08  0.421E-04    2.21      21.4  T
     SCC iter.                  ...        0 min,  1.711 sec
     gradient                   ...        0 min,  0.129 sec
 * total energy  :  -183.1739813 Eh     change       -0.5068567E-01 Eh
   gradient norm :     0.0591805 Eh/α   predicted    -0.4779400E-01 (  -5.71%)
   displ. norm   :     0.7844647 α      lambda       -0.4224461E-01
   maximum displ.:     0.2019980 α      in ANC's #26, #72, #27, ...

........................................................................
.............................. CYCLE    6 ..............................
........................................................................

 iter      E             dE          RMSdq      gap      omega  full diag
   1   -186.0650460 -0.186065E+03  0.140E-01    2.23       0.0  T
   2   -186.0652160 -0.169956E-03  0.791E-02    2.23       1.0  T
   3   -186.0651870  0.290109E-04  0.338E-02    2.22       1.0  T
   4   -186.0652392 -0.521824E-04  0.975E-03    2.22       1.0  T
   5   -186.0652445 -0.527807E-05  0.339E-03    2.22       2.7  T
   6   -186.0652446 -0.121703E-06  0.135E-03    2.22       6.7  T
   7   -186.0652447 -0.117088E-06  0.454E-04    2.22      19.9  T
   8   -186.0652447 -0.214268E-08  0.233E-04    2.22      38.7  T
     SCC iter.                  ...        0 min,  1.053 sec
     gradient                   ...        0 min,  0.128 sec
 * total energy  :  -183.2097448 Eh     change       -0.3576349E-01 Eh
   gradient norm :     0.0414747 Eh/α   predicted    -0.3412065E-01 (  -4.59%)
   displ. norm   :     0.7998301 α      lambda       -0.3013323E-01
   maximum displ.:     0.2450077 α      in ANC's #26, #32, #72, ...

........................................................................
.............................. CYCLE    7 ..............................
........................................................................

 iter      E             dE          RMSdq      gap      omega  full diag
   1   -186.0829615 -0.186083E+03  0.132E-01    2.24       0.0  T
   2   -186.0830536 -0.921257E-04  0.756E-02    2.24       1.0  T
   3   -186.0830401  0.134694E-04  0.217E-02    2.24       1.0  T
   4   -186.0830605 -0.203317E-04  0.760E-03    2.24       1.2  T
   5   -186.0830647 -0.423779E-05  0.256E-03    2.24       3.5  T
   6   -186.0830648 -0.786598E-07  0.981E-04    2.24       9.2  T
   7   -186.0830648 -0.655496E-07  0.390E-04    2.24      23.1  T
     SCC iter.                  ...        0 min,  1.416 sec
     gradient                   ...        0 min,  0.202 sec
 * total energy  :  -183.2354738 Eh     change       -0.2572908E-01 Eh
   gradient norm :     0.0301068 Eh/α   predicted    -0.2470519E-01 (  -3.98%)
   displ. norm   :     0.8050471 α      lambda       -0.2179186E-01
   maximum displ.:     0.2788575 α      in ANC's #26, #32, #23, ...

........................................................................
.............................. CYCLE    8 ..............................
........................................................................

 iter      E             dE          RMSdq      gap      omega  full diag
   1   -186.0929864 -0.186093E+03  0.127E-01    2.25       0.0  T
   2   -186.0930375 -0.510904E-04  0.736E-02    2.25       1.0  T
   3   -186.0930307  0.680705E-05  0.144E-02    2.25       1.0  T
   4   -186.0930405 -0.975005E-05  0.565E-03    2.24       1.6  T
   5   -186.0930433 -0.280422E-05  0.205E-03    2.25       4.4  T
   6   -186.0930434 -0.946749E-07  0.802E-04    2.25      11.2  T
   7   -186.0930434 -0.436932E-07  0.345E-04    2.25      26.1  T
     SCC iter.                  ...        0 min,  1.070 sec
     gradient                   ...        0 min,  0.183 sec
 * total energy  :  -183.2541296 Eh     change       -0.1865572E-01 Eh
   gradient norm :     0.0232948 Eh/α   predicted    -0.1795760E-01 (  -3.74%)
   displ. norm   :     0.8027817 α      lambda       -0.1583975E-01
   maximum displ.:     0.3010803 α      in ANC's #26, #32, #23, ...

........................................................................
.............................. CYCLE    9 ..............................
........................................................................

 iter      E             dE          RMSdq      gap      omega  full diag
   1   -186.0989901 -0.186099E+03  0.120E-01    2.26       0.0  T
   2   -186.0990218 -0.316464E-04  0.695E-02    2.25       1.0  T
   3   -186.0990141  0.766917E-05  0.122E-02    2.25       1.0  T
   4   -186.0990241 -0.100098E-04  0.464E-03    2.25       1.9  T
   5   -186.0990260 -0.189056E-05  0.170E-03    2.25       5.3  T
   6   -186.0990261 -0.765673E-07  0.705E-04    2.25      12.8  T
   7   -186.0990261 -0.323807E-07  0.312E-04    2.25      28.9  T
     SCC iter.                  ...        0 min,  1.080 sec
     gradient                   ...        0 min,  0.189 sec
 * total energy  :  -183.2676822 Eh     change       -0.1355264E-01 Eh
   gradient norm :     0.0189880 Eh/α   predicted    -0.1302391E-01 (  -3.90%)
   displ. norm   :     0.7965058 α      lambda       -0.1156618E-01
   maximum displ.:     0.3089758 α      in ANC's #26, #23, #32, ...

........................................................................
.............................. CYCLE   10 ..............................
........................................................................

 iter      E             dE          RMSdq      gap      omega  full diag
   1   -186.1034311 -0.186103E+03  0.108E-01    2.26       0.0  T
   2   -186.1034531 -0.219729E-04  0.628E-02    2.26       1.0  T
   3   -186.1034444  0.867155E-05  0.118E-02    2.25       1.0  T
   4   -186.1034556 -0.111259E-04  0.398E-03    2.25       2.3  T
   5   -186.1034567 -0.113959E-05  0.145E-03    2.25       6.2  T
   6   -186.1034568 -0.506234E-07  0.592E-04    2.25      15.2  T
   7   -186.1034568 -0.172558E-07  0.280E-04    2.25      32.2  T
     SCC iter.                  ...        0 min,  1.024 sec
     gradient                   ...        0 min,  0.208 sec
 * total energy  :  -183.2775790 Eh     change       -0.9896804E-02 Eh
   gradient norm :     0.0150604 Eh/α   predicted    -0.9452012E-02 (  -4.49%)
   displ. norm   :     0.7919383 α      lambda       -0.8525301E-02
   maximum displ.:     0.3018631 α      in ANC's #26, #23, #32, ...

........................................................................
.............................. CYCLE   11 ..............................
........................................................................

 iter      E             dE          RMSdq      gap      omega  full diag
   1   -186.1074464 -0.186107E+03  0.975E-02    2.26       0.0  T
   2   -186.1074625 -0.161534E-04  0.565E-02    2.26       1.0  T
   3   -186.1074536  0.891843E-05  0.113E-02    2.25       1.0  T
   4   -186.1074649 -0.113120E-04  0.355E-03    2.25       2.5  T
   5   -186.1074657 -0.760321E-06  0.130E-03    2.25       6.9  T
   6   -186.1074657 -0.386665E-07  0.530E-04    2.25      17.0  T
   7   -186.1074657 -0.109533E-07  0.261E-04    2.25      34.5  T
     SCC iter.                  ...        0 min,  1.000 sec
     gradient                   ...        0 min,  0.168 sec
 * total energy  :  -183.2848597 Eh     change       -0.7280677E-02 Eh
   gradient norm :     0.0114226 Eh/α   predicted    -0.6936047E-02 (  -4.73%)
   displ. norm   :     0.7862629 α      lambda       -0.6254557E-02
   maximum displ.:     0.2798457 α      in ANC's #26, #23, #19, ...

........................................................................
.............................. CYCLE   12 ..............................
........................................................................

 iter      E             dE          RMSdq      gap      omega  full diag
   1   -186.1111674 -0.186111E+03  0.875E-02    2.25       0.0  T
   2   -186.1111791 -0.116367E-04  0.507E-02    2.25       1.0  T
   3   -186.1111704  0.863195E-05  0.105E-02    2.24       1.0  T
   4   -186.1111812 -0.107758E-04  0.316E-03    2.25       2.9  T
   5   -186.1111818 -0.557808E-06  0.120E-03    2.25       7.5  T
   6   -186.1111818 -0.372966E-07  0.506E-04    2.25      17.8  T
   7   -186.1111818 -0.111621E-07  0.253E-04    2.25      35.6  T
     SCC iter.                  ...        0 min,  1.022 sec
     gradient                   ...        0 min,  0.165 sec
 * total energy  :  -183.2901758 Eh     change       -0.5316109E-02 Eh
   gradient norm :     0.0086642 Eh/α   predicted    -0.5060598E-02 (  -4.81%)
   displ. norm   :     0.7779959 α      lambda       -0.4543549E-02
   maximum displ.:     0.2460336 α      in ANC's #26, #23, #19, ...

........................................................................
.............................. CYCLE   13 ..............................
........................................................................

 iter      E             dE          RMSdq      gap      omega  full diag
   1   -186.1140428 -0.186114E+03  0.784E-02    2.24       0.0  T
   2   -186.1140508 -0.804695E-05  0.456E-02    2.24       1.0  T
   3   -186.1140430  0.779676E-05  0.951E-03    2.23       1.0  T
   4   -186.1140527 -0.962970E-05  0.278E-03    2.24       3.2  T
   5   -186.1140531 -0.413321E-06  0.110E-03    2.24       8.2  T
   6   -186.1140531 -0.330401E-07  0.479E-04    2.24      18.8  T
   7   -186.1140531 -0.970337E-08  0.248E-04    2.24      36.4  T
     SCC iter.                  ...        0 min,  1.024 sec
     gradient                   ...        0 min,  0.191 sec
 * total energy  :  -183.2940226 Eh     change       -0.3846780E-02 Eh
   gradient norm :     0.0069512 Eh/α   predicted    -0.3646834E-02 (  -5.20%)
   displ. norm   :     0.7695694 α      lambda       -0.3324691E-02
   maximum displ.:     0.2234290 α      in ANC's #5, #19, #23, ...

........................................................................
.............................. CYCLE   14 ..............................
........................................................................

 iter      E             dE          RMSdq      gap      omega  full diag
   1   -186.1168056 -0.186117E+03  0.698E-02    2.23       0.0  T
   2   -186.1168111 -0.553495E-05  0.406E-02    2.23       1.0  T
   3   -186.1168043  0.677272E-05  0.876E-03    2.22       1.0  T
   4   -186.1168128 -0.841853E-05  0.234E-03    2.23       3.9  T
   5   -186.1168130 -0.237465E-06  0.101E-03    2.23       9.0  T
   6   -186.1168130 -0.324559E-07  0.449E-04    2.23      20.1  T
   7   -186.1168130 -0.743310E-08  0.232E-04    2.23      38.9  T
     SCC iter.                  ...        0 min,  1.134 sec
     gradient                   ...        0 min,  0.225 sec
 * total energy  :  -183.2968452 Eh     change       -0.2822651E-02 Eh
   gradient norm :     0.0066116 Eh/α   predicted    -0.2646854E-02 (  -6.23%)
   displ. norm   :     0.7654590 α      lambda       -0.2536154E-02
   maximum displ.:     0.2512731 α      in ANC's #5, #8, #19, ...

........................................................................
.............................. CYCLE   15 ..............................
........................................................................

 iter      E             dE          RMSdq      gap      omega  full diag
   1   -186.1180564 -0.186118E+03  0.652E-02    2.22       0.0  T
   2   -186.1180610 -0.454493E-05  0.381E-02    2.22       1.0  T
   3   -186.1180544  0.654274E-05  0.876E-03    2.21       1.0  T
   4   -186.1180626 -0.821508E-05  0.207E-03    2.22       4.4  T
   5   -186.1180628 -0.134209E-06  0.968E-04    2.22       9.3  T
   6   -186.1180628 -0.304071E-07  0.447E-04    2.22      20.2  T
     SCC iter.                  ...        0 min,  0.878 sec
     gradient                   ...        0 min,  0.136 sec
 * total energy  :  -183.2990142 Eh     change       -0.2169009E-02 Eh
   gradient norm :     0.0065221 Eh/α   predicted    -0.2011089E-02 (  -7.28%)
   displ. norm   :     0.7751163 α      lambda       -0.2136287E-02
   maximum displ.:     0.2732712 α      in ANC's #5, #8, #19, ...

........................................................................
.............................. CYCLE   16 ..............................
........................................................................

 iter      E             dE          RMSdq      gap      omega  full diag
   1   -186.1214113 -0.186121E+03  0.628E-02    2.21       0.0  T
   2   -186.1214160 -0.469662E-05  0.368E-02    2.21       1.0  T
   3   -186.1214086  0.731884E-05  0.981E-03    2.20       1.0  T
   4   -186.1214180 -0.930690E-05  0.193E-03    2.21       4.7  T
   5   -186.1214180 -0.697701E-07  0.981E-04    2.21       9.2  T
   6   -186.1214181 -0.407457E-07  0.418E-04    2.21      21.6  T
     SCC iter.                  ...        0 min,  0.757 sec
     gradient                   ...        0 min,  0.144 sec
 * total energy  :  -183.3008281 Eh     change       -0.1813895E-02 Eh
   gradient norm :     0.0095295 Eh/α   predicted    -0.1709891E-02 (  -5.73%)
   displ. norm   :     0.7886383 α      lambda       -0.1996092E-02
   maximum displ.:     0.2933451 α      in ANC's #5, #8, #7, ...

........................................................................
.............................. CYCLE   17 ..............................
........................................................................

 iter      E             dE          RMSdq      gap      omega  full diag
   1   -186.1202332 -0.186120E+03  0.669E-02    2.20       0.0  T
   2   -186.1202390 -0.579098E-05  0.393E-02    2.20       1.0  T
   3   -186.1202302  0.876220E-05  0.110E-02    2.19       1.0  T
   4   -186.1202414 -0.112002E-04  0.206E-03    2.20       4.4  T
   5   -186.1202415 -0.719822E-07  0.104E-03    2.20       8.7  T
   6   -186.1202415 -0.378114E-07  0.475E-04    2.20      19.0  T
   7   -186.1202415 -0.640210E-08  0.225E-04    2.20      40.0  T
     SCC iter.                  ...        0 min,  1.060 sec
     gradient                   ...        0 min,  0.129 sec
 * total energy  :  -183.3025010 Eh     change       -0.1672897E-02 Eh
   gradient norm :     0.0081096 Eh/α   predicted    -0.1618783E-02 (  -3.23%)
   displ. norm   :     0.7840985 α      lambda       -0.1799714E-02
   maximum displ.:     0.3105457 α      in ANC's #8, #5, #9, ...

........................................................................
.............................. CYCLE   18 ..............................
........................................................................

 iter      E             dE          RMSdq      gap      omega  full diag
   1   -186.1224776 -0.186122E+03  0.667E-02    2.19       0.0  T
   2   -186.1224833 -0.570222E-05  0.391E-02    2.19       1.0  T
   3   -186.1224745  0.880433E-05  0.115E-02    2.18       1.0  T
   4   -186.1224858 -0.112929E-04  0.196E-03    2.18       4.6  T
   5   -186.1224858 -0.477033E-07  0.971E-04    2.18       9.3  T
   6   -186.1224858 -0.343683E-07  0.430E-04    2.19      21.0  T
     SCC iter.                  ...        0 min,  0.879 sec
     gradient                   ...        0 min,  0.127 sec
 * total energy  :  -183.3041161 Eh     change       -0.1615106E-02 Eh
   gradient norm :     0.0064069 Eh/α   predicted    -0.1453100E-02 ( -10.03%)
   displ. norm   :     0.8060986 α      lambda       -0.1776923E-02
   maximum displ.:     0.3214637 α      in ANC's #8, #5, #9, ...

........................................................................
.............................. CYCLE   19 ..............................
........................................................................

 iter      E             dE          RMSdq      gap      omega  full diag
   1   -186.1240282 -0.186124E+03  0.748E-02    2.18       0.0  T
   2   -186.1240350 -0.672116E-05  0.440E-02    2.18       1.0  T
   3   -186.1240236  0.113345E-04  0.131E-02    2.17       1.0  T
   4   -186.1240380 -0.144120E-04  0.207E-03    2.17       4.4  T
   5   -186.1240381 -0.420529E-07  0.102E-03    2.17       8.9  T
   6   -186.1240381 -0.413269E-07  0.452E-04    2.17      20.0  T
   7   -186.1240381 -0.490499E-08  0.205E-04    2.17      44.1  T
     SCC iter.                  ...        0 min,  1.036 sec
     gradient                   ...        0 min,  0.133 sec
 * total energy  :  -183.3057093 Eh     change       -0.1593141E-02 Eh
   gradient norm :     0.0058409 Eh/α   predicted    -0.1465782E-02 (  -7.99%)
   displ. norm   :     0.8228595 α      lambda       -0.1654704E-02
   maximum displ.:     0.3288537 α      in ANC's #8, #5, #9, ...

........................................................................
.............................. CYCLE   20 ..............................
........................................................................

 iter      E             dE          RMSdq      gap      omega  full diag
   1   -186.1247029 -0.186125E+03  0.816E-02    2.16       0.0  T
   2   -186.1247092 -0.623670E-05  0.479E-02    2.16       1.0  T
   3   -186.1246995  0.963833E-05  0.119E-02    2.16       1.0  T
   4   -186.1247118 -0.123077E-04  0.207E-03    2.16       4.4  T
   5   -186.1247119 -0.490438E-07  0.102E-03    2.16       8.8  T
   6   -186.1247119 -0.336889E-07  0.467E-04    2.16      19.3  T
   7   -186.1247119 -0.643303E-08  0.200E-04    2.16      45.1  T
     SCC iter.                  ...        0 min,  0.951 sec
     gradient                   ...        0 min,  0.127 sec
 * total energy  :  -183.3071643 Eh     change       -0.1455060E-02 Eh
   gradient norm :     0.0064979 Eh/α   predicted    -0.1387569E-02 (  -4.64%)
   displ. norm   :     0.8205727 α      lambda       -0.1463726E-02
   maximum displ.:     0.3163067 α      in ANC's #8, #7, #9, ...
 * RMSD in coord.:     1.1175014 α      energy gain  -0.5844701E+00 Eh

generating ANC from model Hessian ...
Using Lindh-Hessian (1995)
 Shifting diagonal of input Hessian by    1.0064088438605446E-002
 Lowest  eigenvalues of input Hessian
    0.010000   -0.000000   -0.000000   -0.000000    0.000000   -0.000000
    0.000000    0.000000    0.000000    0.000000    0.000000    0.000000
    0.000000    0.010093    0.010119    0.010146    0.010182    0.010229
 Highest eigenvalues
    2.026013    2.027575    2.089909    2.109027    2.683209    3.385994


........................................................................
.............................. CYCLE   21 ..............................
........................................................................

 iter      E             dE          RMSdq      gap      omega  full diag
   1   -186.1232923 -0.186123E+03  0.808E-02    2.15       0.0  T
   2   -186.1232968 -0.451146E-05  0.475E-02    2.15       1.0  T
   3   -186.1232896  0.726540E-05  0.985E-03    2.15       1.0  T
   4   -186.1232989 -0.932824E-05  0.187E-03    2.15       4.8  T
   5   -186.1232989 -0.291949E-07  0.939E-04    2.15       9.6  T
   6   -186.1232990 -0.401612E-07  0.416E-04    2.15      21.7  T
     SCC iter.                  ...        0 min,  0.827 sec
     gradient                   ...        0 min,  0.123 sec
 * total energy  :  -183.3084405 Eh     change       -0.1276127E-02 Eh
   gradient norm :     0.0065748 Eh/α   predicted     0.0000000E+00 (-100.00%)
   displ. norm   :     0.1607420 α      lambda       -0.4039761E-03
   maximum displ.:     0.0639155 α      in ANC's #9, #7, #10, ...

........................................................................
.............................. CYCLE   22 ..............................
........................................................................

 iter      E             dE          RMSdq      gap      omega  full diag
   1   -186.1269774 -0.186127E+03  0.215E-02    2.15       0.0  T
   2   -186.1269779 -0.442253E-06  0.126E-02    2.15       1.0  T
   3   -186.1269771  0.720336E-06  0.267E-03    2.15       3.4  T
   4   -186.1269780 -0.873057E-06  0.742E-04    2.15      12.2  T
   5   -186.1269780 -0.236581E-07  0.321E-04    2.15      28.1  T
     SCC iter.                  ...        0 min,  0.675 sec
     gradient                   ...        0 min,  0.123 sec
 * total energy  :  -183.3087870 Eh     change       -0.3465368E-03 Eh
   gradient norm :     0.0034514 Eh/α   predicted    -0.2078983E-03 ( -40.01%)
   displ. norm   :     0.4821926 α      lambda       -0.8651133E-03
   maximum displ.:     0.2011565 α      in ANC's #9, #7, #10, ...

........................................................................
.............................. CYCLE   23 ..............................
........................................................................

 iter      E             dE          RMSdq      gap      omega  full diag
   1   -186.1314196 -0.186131E+03  0.567E-02    2.15       0.0  T
   2   -186.1314220 -0.240827E-05  0.332E-02    2.15       1.0  T
   3   -186.1314178  0.419519E-05  0.640E-03    2.14       1.4  T
   4   -186.1314228 -0.506422E-05  0.188E-03    2.15       4.8  T
   5   -186.1314230 -0.146894E-06  0.767E-04    2.15      11.7  T
   6   -186.1314230 -0.224782E-07  0.332E-04    2.15      27.2  T
     SCC iter.                  ...        0 min,  1.184 sec
     gradient                   ...        0 min,  0.276 sec
 * total energy  :  -183.3094476 Eh     change       -0.6605783E-03 Eh
   gradient norm :     0.0053365 Eh/α   predicted    -0.5331650E-03 ( -19.29%)
   displ. norm   :     0.5271090 α      lambda       -0.6594363E-03
   maximum displ.:     0.2296900 α      in ANC's #9, #7, #10, ...

........................................................................
.............................. CYCLE   24 ..............................
........................................................................

 iter      E             dE          RMSdq      gap      omega  full diag
   1   -186.1318677 -0.186132E+03  0.582E-02    2.14       0.0  T
   2   -186.1318697 -0.198487E-05  0.340E-02    2.15       1.0  T
   3   -186.1318672  0.257300E-05  0.529E-03    2.14       1.7  T
   4   -186.1318703 -0.319725E-05  0.175E-03    2.15       5.2  T
   5   -186.1318705 -0.135124E-06  0.685E-04    2.15      13.2  T
   6   -186.1318705 -0.207137E-07  0.301E-04    2.15      29.9  T
     SCC iter.                  ...        0 min,  1.460 sec
     gradient                   ...        0 min,  0.245 sec
 * total energy  :  -183.3100127 Eh     change       -0.5651045E-03 Eh
   gradient norm :     0.0078567 Eh/α   predicted    -0.4213392E-03 ( -25.44%)
   displ. norm   :     0.6220804 α      lambda       -0.7778342E-03
   maximum displ.:     0.2772372 α      in ANC's #9, #7, #10, ...

........................................................................
.............................. CYCLE   25 ..............................
........................................................................

 iter      E             dE          RMSdq      gap      omega  full diag
   1   -186.1302319 -0.186130E+03  0.658E-02    2.14       0.0  T
   2   -186.1302343 -0.246528E-05  0.385E-02    2.14       1.0  T
   3   -186.1302322  0.213457E-05  0.536E-03    2.14       1.7  T
   4   -186.1302351 -0.289020E-05  0.177E-03    2.14       5.1  T
   5   -186.1302352 -0.107629E-06  0.688E-04    2.14      13.1  T
   6   -186.1302352 -0.194966E-07  0.316E-04    2.14      28.6  T
     SCC iter.                  ...        0 min,  1.423 sec
     gradient                   ...        0 min,  0.300 sec
 * total energy  :  -183.3107111 Eh     change       -0.6984667E-03 Eh
   gradient norm :     0.0075502 Eh/α   predicted    -0.5394219E-03 ( -22.77%)
   displ. norm   :     0.6971118 α      lambda       -0.9201290E-03
   maximum displ.:     0.3187234 α      in ANC's #7, #9, #10, ...

........................................................................
.............................. CYCLE   26 ..............................
........................................................................

 iter      E             dE          RMSdq      gap      omega  full diag
   1   -186.1281224 -0.186128E+03  0.695E-02    2.14       0.0  T
   2   -186.1281255 -0.303047E-05  0.406E-02    2.14       1.0  T
   3   -186.1281228  0.269532E-05  0.619E-03    2.14       1.5  T
   4   -186.1281265 -0.375508E-05  0.176E-03    2.14       5.1  T
   5   -186.1281266 -0.656206E-07  0.702E-04    2.14      12.8  T
   6   -186.1281266 -0.152407E-07  0.325E-04    2.14      27.7  T
     SCC iter.                  ...        0 min,  1.434 sec
     gradient                   ...        0 min,  0.298 sec
 * total energy  :  -183.3115182 Eh     change       -0.8070121E-03 Eh
   gradient norm :     0.0053672 Eh/α   predicted    -0.6836408E-03 ( -15.29%)
   displ. norm   :     0.7310434 α      lambda       -0.8590596E-03
   maximum displ.:     0.3465430 α      in ANC's #7, #9, #10, ...

........................................................................
.............................. CYCLE   27 ..............................
........................................................................

 iter      E             dE          RMSdq      gap      omega  full diag
   1   -186.1270820 -0.186127E+03  0.677E-02    2.14       0.0  T
   2   -186.1270851 -0.311773E-05  0.397E-02    2.14       1.0  T
   3   -186.1270820  0.313062E-05  0.663E-03    2.14       1.4  T
   4   -186.1270863 -0.432462E-05  0.169E-03    2.14       5.3  T
   5   -186.1270864 -0.417659E-07  0.750E-04    2.14      12.0  T
   6   -186.1270864 -0.185455E-07  0.348E-04    2.14      25.9  T
     SCC iter.                  ...        0 min,  1.509 sec
     gradient                   ...        0 min,  0.278 sec
 * total energy  :  -183.3122592 Eh     change       -0.7409978E-03 Eh
   gradient norm :     0.0051314 Eh/α   predicted    -0.6590861E-03 ( -11.05%)
   displ. norm   :     0.7409733 α      lambda       -0.7325502E-03
   maximum displ.:     0.3623593 α      in ANC's #7, #9, #10, ...

........................................................................
.............................. CYCLE   28 ..............................
........................................................................

 iter      E             dE          RMSdq      gap      omega  full diag
   1   -186.1271330 -0.186127E+03  0.645E-02    2.13       0.0  T
   2   -186.1271359 -0.288378E-05  0.378E-02    2.13       1.0  T
   3   -186.1271329  0.293431E-05  0.641E-03    2.13       1.4  T
   4   -186.1271370 -0.403265E-05  0.160E-03    2.13       5.6  T
   5   -186.1271370 -0.350622E-07  0.752E-04    2.13      12.0  T
   6   -186.1271370 -0.199403E-07  0.351E-04    2.13      25.7  T
     SCC iter.                  ...        0 min,  1.404 sec
     gradient                   ...        0 min,  0.320 sec
 * total energy  :  -183.3129060 Eh     change       -0.6468070E-03 Eh
   gradient norm :     0.0054716 Eh/α   predicted    -0.5673786E-03 ( -12.28%)
   displ. norm   :     0.7322425 α      lambda       -0.6684345E-03
   maximum displ.:     0.3681947 α      in ANC's #7, #9, #10, ...

........................................................................
.............................. CYCLE   29 ..............................
........................................................................

 iter      E             dE          RMSdq      gap      omega  full diag
   1   -186.1290082 -0.186129E+03  0.601E-02    2.12       0.0  T
   2   -186.1290110 -0.283885E-05  0.353E-02    2.13       1.0  T
   3   -186.1290077  0.334067E-05  0.654E-03    2.12       1.4  T
   4   -186.1290121 -0.439633E-05  0.158E-03    2.13       5.7  T
   5   -186.1290121 -0.452229E-07  0.775E-04    2.12      11.6  T
   6   -186.1290121 -0.264460E-07  0.363E-04    2.12      24.8  T
     SCC iter.                  ...        0 min,  1.377 sec
     gradient                   ...        0 min,  0.281 sec
 * total energy  :  -183.3134999 Eh     change       -0.5939549E-03 Eh
   gradient norm :     0.0046200 Eh/α   predicted    -0.5134238E-03 ( -13.56%)
   displ. norm   :     0.7382714 α      lambda       -0.6269270E-03
   maximum displ.:     0.3782144 α      in ANC's #7, #9, #10, ...

........................................................................
.............................. CYCLE   30 ..............................
........................................................................

 iter      E             dE          RMSdq      gap      omega  full diag
   1   -186.1313411 -0.186131E+03  0.586E-02    2.11       0.0  T
   2   -186.1313440 -0.298399E-05  0.344E-02    2.12       1.0  T
   3   -186.1313399  0.413002E-05  0.693E-03    2.11       1.3  T
   4   -186.1313451 -0.522021E-05  0.165E-03    2.12       5.5  T
   5   -186.1313452 -0.701531E-07  0.792E-04    2.12      11.4  T
   6   -186.1313452 -0.326010E-07  0.370E-04    2.12      24.3  T
     SCC iter.                  ...        0 min,  1.257 sec
     gradient                   ...        0 min,  0.129 sec
 * total energy  :  -183.3140596 Eh     change       -0.5597028E-03 Eh
   gradient norm :     0.0033478 Eh/α   predicted    -0.4843158E-03 ( -13.47%)
   displ. norm   :     0.7641666 α      lambda       -0.5768217E-03
   maximum displ.:     0.3959067 α      in ANC's #7, #9, #10, ...

........................................................................
.............................. CYCLE   31 ..............................
........................................................................

 iter      E             dE          RMSdq      gap      omega  full diag
   1   -186.1325971 -0.186133E+03  0.594E-02    2.10       0.0  T
   2   -186.1325999 -0.279267E-05  0.349E-02    2.11       1.0  T
   3   -186.1325959  0.399435E-05  0.665E-03    2.10       1.4  T
   4   -186.1326008 -0.499221E-05  0.168E-03    2.11       5.4  T
   5   -186.1326009 -0.875421E-07  0.767E-04    2.11      11.8  T
   6   -186.1326010 -0.307217E-07  0.360E-04    2.11      25.1  T
     SCC iter.                  ...        0 min,  0.832 sec
     gradient                   ...        0 min,  0.119 sec
 * total energy  :  -183.3145732 Eh     change       -0.5135696E-03 Eh
   gradient norm :     0.0031270 Eh/α   predicted    -0.4568303E-03 ( -11.05%)
   displ. norm   :     0.7695287 α      lambda       -0.5027366E-03
   maximum displ.:     0.4028515 α      in ANC's #7, #9, #10, ...

........................................................................
.............................. CYCLE   32 ..............................
........................................................................

 iter      E             dE          RMSdq      gap      omega  full diag
   1   -186.1329626 -0.186133E+03  0.592E-02    2.10       0.0  T
   2   -186.1329648 -0.226735E-05  0.347E-02    2.10       1.0  T
   3   -186.1329621  0.276711E-05  0.561E-03    2.09       1.6  T
   4   -186.1329656 -0.353133E-05  0.161E-03    2.10       5.6  T
   5   -186.1329657 -0.850850E-07  0.695E-04    2.10      13.0  T
   6   -186.1329657 -0.226761E-07  0.333E-04    2.10      27.1  T
     SCC iter.                  ...        0 min,  1.153 sec
     gradient                   ...        0 min,  0.227 sec
 * total energy  :  -183.3150192 Eh     change       -0.4459667E-03 Eh
   gradient norm :     0.0034894 Eh/α   predicted    -0.4002247E-03 ( -10.26%)
   displ. norm   :     0.7569553 α      lambda       -0.4338620E-03
   maximum displ.:     0.3999769 α      in ANC's #7, #9, #10, ...

........................................................................
.............................. CYCLE   33 ..............................
........................................................................

 iter      E             dE          RMSdq      gap      omega  full diag
   1   -186.1328974 -0.186133E+03  0.583E-02    2.09       0.0  T
   2   -186.1328992 -0.180303E-05  0.341E-02    2.09       1.0  T
   3   -186.1328976  0.161966E-05  0.455E-03    2.09       2.0  T
   4   -186.1328998 -0.220069E-05  0.149E-03    2.09       6.1  T
   5   -186.1328999 -0.695424E-07  0.616E-04    2.09      14.6  T
   6   -186.1328999 -0.144942E-07  0.304E-04    2.09      29.7  T
     SCC iter.                  ...        0 min,  1.080 sec
     gradient                   ...        0 min,  0.180 sec
 * total energy  :  -183.3154039 Eh     change       -0.3847634E-03 Eh
   gradient norm :     0.0034654 Eh/α   predicted    -0.3412309E-03 ( -11.31%)
   displ. norm   :     0.7439638 α      lambda       -0.3818675E-03
   maximum displ.:     0.3974974 α      in ANC's #7, #9, #10, ...

........................................................................
.............................. CYCLE   34 ..............................
........................................................................

 iter      E             dE          RMSdq      gap      omega  full diag
   1   -186.1328742 -0.186133E+03  0.586E-02    2.09       0.0  T
   2   -186.1328758 -0.160188E-05  0.343E-02    2.09       1.0  T
   3   -186.1328748  0.100882E-05  0.394E-03    2.08       2.3  T
   4   -186.1328763 -0.151882E-05  0.141E-03    2.09       6.4  T
   5   -186.1328764 -0.578194E-07  0.565E-04    2.09      16.0  T
   6   -186.1328764 -0.855698E-08  0.286E-04    2.09      31.5  T
     SCC iter.                  ...        0 min,  0.965 sec
     gradient                   ...        0 min,  0.177 sec
 * total energy  :  -183.3157438 Eh     change       -0.3398577E-03 Eh
   gradient norm :     0.0030831 Eh/α   predicted    -0.2966196E-03 ( -12.72%)
   displ. norm   :     0.7521404 α      lambda       -0.3507248E-03
   maximum displ.:     0.4049932 α      in ANC's #7, #9, #10, ...

........................................................................
.............................. CYCLE   35 ..............................
........................................................................

 iter      E             dE          RMSdq      gap      omega  full diag
   1   -186.1324117 -0.186132E+03  0.620E-02    2.08       0.0  T
   2   -186.1324134 -0.167031E-05  0.363E-02    2.08       1.0  T
   3   -186.1324125  0.870894E-06  0.383E-03    2.08       2.4  T
   4   -186.1324139 -0.139890E-05  0.144E-03    2.08       6.3  T
   5   -186.1324140 -0.650290E-07  0.563E-04    2.08      16.0  T
   6   -186.1324140 -0.648038E-08  0.285E-04    2.08      31.7  T
     SCC iter.                  ...        0 min,  0.864 sec
     gradient                   ...        0 min,  0.176 sec
 * total energy  :  -183.3160560 Eh     change       -0.3122209E-03 Eh
   gradient norm :     0.0026428 Eh/α   predicted    -0.2745684E-03 ( -12.06%)
   displ. norm   :     0.7560005 α      lambda       -0.3215574E-03
   maximum displ.:     0.4099860 α      in ANC's #7, #9, #10, ...

........................................................................
.............................. CYCLE   36 ..............................
........................................................................

 iter      E             dE          RMSdq      gap      omega  full diag
   1   -186.1324514 -0.186132E+03  0.658E-02    2.08       0.0  T
   2   -186.1324533 -0.185883E-05  0.385E-02    2.08       1.0  T
   3   -186.1324523  0.980108E-06  0.397E-03    2.08       2.3  T
   4   -186.1324538 -0.155191E-05  0.150E-03    2.08       6.0  T
   5   -186.1324539 -0.830637E-07  0.603E-04    2.08      15.0  T
   6   -186.1324539 -0.834683E-08  0.301E-04    2.08      29.9  T
     SCC iter.                  ...        0 min,  0.850 sec
     gradient                   ...        0 min,  0.237 sec
 * total energy  :  -183.3163378 Eh     change       -0.2818182E-03 Eh
   gradient norm :     0.0025076 Eh/α   predicted    -0.2526719E-03 ( -10.34%)
   displ. norm   :     0.7547781 α      lambda       -0.2882814E-03
   maximum displ.:     0.4085639 α      in ANC's #7, #9, #10, ...

........................................................................
.............................. CYCLE   37 ..............................
........................................................................

 iter      E             dE          RMSdq      gap      omega  full diag
   1   -186.1314996 -0.186131E+03  0.697E-02    2.08       0.0  T
   2   -186.1315016 -0.201821E-05  0.408E-02    2.08       1.0  T
   3   -186.1315005  0.116958E-05  0.414E-03    2.08       2.2  T
   4   -186.1315023 -0.179409E-05  0.151E-03    2.07       6.0  T
   5   -186.1315023 -0.915578E-07  0.621E-04    2.08      14.5  T
   6   -186.1315024 -0.927855E-08  0.307E-04    2.08      29.4  T
     SCC iter.                  ...        0 min,  0.816 sec
     gradient                   ...        0 min,  0.143 sec
 * total energy  :  -183.3165930 Eh     change       -0.2551826E-03 Eh
   gradient norm :     0.0027852 Eh/α   predicted    -0.2262606E-03 ( -11.33%)
   displ. norm   :     0.7359491 α      lambda       -0.2679141E-03
   maximum displ.:     0.3970405 α      in ANC's #7, #9, #8, ...

........................................................................
.............................. CYCLE   38 ..............................
........................................................................

 iter      E             dE          RMSdq      gap      omega  full diag
   1   -186.1328165 -0.186133E+03  0.717E-02    2.07       0.0  T
   2   -186.1328186 -0.210496E-05  0.420E-02    2.07       1.0  T
   3   -186.1328174  0.120129E-05  0.420E-03    2.07       2.1  T
   4   -186.1328192 -0.185379E-05  0.148E-03    2.07       6.1  T
   5   -186.1328193 -0.863597E-07  0.629E-04    2.07      14.3  T
   6   -186.1328193 -0.940841E-08  0.315E-04    2.07      28.6  T
     SCC iter.                  ...        0 min,  0.896 sec
     gradient                   ...        0 min,  0.146 sec
 * total energy  :  -183.3168196 Eh     change       -0.2266282E-03 Eh
   gradient norm :     0.0030491 Eh/α   predicted    -0.2065142E-03 (  -8.88%)
   displ. norm   :     0.6953222 α      lambda       -0.2323393E-03
   maximum displ.:     0.3672971 α      in ANC's #7, #9, #8, ...

........................................................................
.............................. CYCLE   39 ..............................
........................................................................

 iter      E             dE          RMSdq      gap      omega  full diag
   1   -186.1308931 -0.186131E+03  0.701E-02    2.07       0.0  T
   2   -186.1308949 -0.183690E-05  0.410E-02    2.07       1.0  T
   3   -186.1308939  0.105297E-05  0.392E-03    2.06       2.3  T
   4   -186.1308955 -0.165083E-05  0.132E-03    2.06       6.8  T
   5   -186.1308956 -0.652619E-07  0.560E-04    2.06      16.1  T
   6   -186.1308956 -0.620793E-08  0.275E-04    2.06      32.8  T
     SCC iter.                  ...        0 min,  1.022 sec
     gradient                   ...        0 min,  0.189 sec
 * total energy  :  -183.3170145 Eh     change       -0.1949131E-03 Eh
   gradient norm :     0.0033483 Eh/α   predicted    -0.1723385E-03 ( -11.58%)
   displ. norm   :     0.6498008 α      lambda       -0.2212937E-03
   maximum displ.:     0.3293202 α      in ANC's #7, #8, #9, ...

........................................................................
.............................. CYCLE   40 ..............................
........................................................................

 iter      E             dE          RMSdq      gap      omega  full diag
   1   -186.1345795 -0.186135E+03  0.704E-02    2.06       0.0  T
   2   -186.1345812 -0.173860E-05  0.412E-02    2.06       1.0  T
   3   -186.1345802  0.104023E-05  0.398E-03    2.06       2.3  T
   4   -186.1345818 -0.163236E-05  0.134E-03    2.06       6.7  T
   5   -186.1345819 -0.599515E-07  0.528E-04    2.06      17.1  T
   6   -186.1345819 -0.612690E-08  0.273E-04    2.06      33.0  T
     SCC iter.                  ...        0 min,  0.753 sec
     gradient                   ...        0 min,  0.121 sec
 * total energy  :  -183.3171991 Eh     change       -0.1845767E-03 Eh
   gradient norm :     0.0033421 Eh/α   predicted    -0.1573670E-03 ( -14.74%)
   displ. norm   :     0.6824016 α      lambda       -0.2038138E-03
   maximum displ.:     0.3377525 α      in ANC's #7, #8, #9, ...

........................................................................
.............................. CYCLE   41 ..............................
........................................................................

 iter      E             dE          RMSdq      gap      omega  full diag
   1   -186.1312936 -0.186131E+03  0.726E-02    2.05       0.0  T
   2   -186.1312953 -0.166388E-05  0.424E-02    2.05       1.0  T
   3   -186.1312943  0.910063E-06  0.408E-03    2.05       2.2  T
   4   -186.1312958 -0.150016E-05  0.144E-03    2.05       6.3  T
   5   -186.1312959 -0.573012E-07  0.560E-04    2.05      16.1  T
   6   -186.1312959 -0.105797E-07  0.292E-04    2.05      30.9  T
     SCC iter.                  ...        0 min,  1.412 sec
     gradient                   ...        0 min,  0.280 sec
 * total energy  :  -183.3173666 Eh     change       -0.1674502E-03 Eh
   gradient norm :     0.0039029 Eh/α   predicted    -0.1493669E-03 ( -10.80%)
   displ. norm   :     0.6110315 α      lambda       -0.2076261E-03
   maximum displ.:     0.2665507 α      in ANC's #7, #8, #1, ...

........................................................................
.............................. CYCLE   42 ..............................
........................................................................

 iter      E             dE          RMSdq      gap      omega  full diag
   1   -186.1349194 -0.186135E+03  0.703E-02    2.05       0.0  T
   2   -186.1349210 -0.153952E-05  0.410E-02    2.05       1.0  T
   3   -186.1349200  0.929539E-06  0.408E-03    2.04       2.2  T
   4   -186.1349215 -0.144345E-05  0.166E-03    2.05       5.4  T
   5   -186.1349216 -0.103615E-06  0.530E-04    2.05      17.0  T
   6   -186.1349216 -0.154305E-07  0.266E-04    2.05      33.8  T
     SCC iter.                  ...        0 min,  1.325 sec
     gradient                   ...        0 min,  0.316 sec
 * total energy  :  -183.3175387 Eh     change       -0.1721770E-03 Eh
   gradient norm :     0.0035908 Eh/α   predicted    -0.1425741E-03 ( -17.19%)
   displ. norm   :     0.6672353 α      lambda       -0.1944861E-03
   maximum displ.:     0.2911871 α      in ANC's #7, #8, #1, ...
 * RMSD in coord.:     1.0999713 α      energy gain  -0.1037441E-01 Eh

generating ANC from model Hessian ...
Using Lindh-Hessian (1995)
 Shifting diagonal of input Hessian by    1.0000982214646421E-002
 Lowest  eigenvalues of input Hessian
    0.010000   -0.000000    0.000000    0.000000    0.000000    0.000000
    0.000000    0.000000    0.000000    0.000000    0.000000    0.000000
    0.000000    0.010029    0.010055    0.010091    0.010112    0.010129
 Highest eigenvalues
    2.026403    2.026733    2.096573    2.112071    2.647479    3.385434


........................................................................
.............................. CYCLE   43 ..............................
........................................................................

 iter      E             dE          RMSdq      gap      omega  full diag
   1   -186.1332403 -0.186133E+03  0.746E-02    2.04       0.0  T
   2   -186.1332421 -0.174225E-05  0.435E-02    2.04       1.0  T
   3   -186.1332410  0.108001E-05  0.459E-03    2.04       2.0  T
   4   -186.1332427 -0.169729E-05  0.177E-03    2.04       5.1  T
   5   -186.1332428 -0.831342E-07  0.579E-04    2.04      15.6  T
   6   -186.1332428 -0.190005E-07  0.281E-04    2.04      32.1  T
     SCC iter.                  ...        0 min,  1.340 sec
     gradient                   ...        0 min,  0.262 sec
 * total energy  :  -183.3177079 Eh     change       -0.1692044E-03 Eh
   gradient norm :     0.0034360 Eh/α   predicted     0.0000000E+00 (-100.00%)
   displ. norm   :     0.0559057 α      lambda       -0.5760724E-04
   maximum displ.:     0.0248960 α      in ANC's #1, #19, #37, ...

........................................................................
.............................. CYCLE   44 ..............................
........................................................................

 iter      E             dE          RMSdq      gap      omega  full diag
   1   -186.1348436 -0.186135E+03  0.993E-03    2.04       0.0  T
   2   -186.1348438 -0.178127E-06  0.581E-03    2.04       1.6  T
   3   -186.1348436  0.201181E-06  0.165E-03    2.04       5.5  T
   4   -186.1348439 -0.255364E-06  0.322E-04    2.04      28.0  T
   5   -186.1348439 -0.257413E-08  0.144E-04    2.04      62.6  T
     SCC iter.                  ...        0 min,  1.178 sec
     gradient                   ...        0 min,  0.257 sec
 * total energy  :  -183.3177582 Eh     change       -0.5025947E-04 Eh
   gradient norm :     0.0017028 Eh/α   predicted    -0.2998604E-04 ( -40.34%)
   displ. norm   :     0.2801788 α      lambda       -0.1293708E-03
   maximum displ.:     0.1266930 α      in ANC's #1, #19, #16, ...

........................................................................
.............................. CYCLE   45 ..............................
........................................................................

 iter      E             dE          RMSdq      gap      omega  full diag
   1   -186.1377347 -0.186138E+03  0.444E-02    2.05       0.0  T
   2   -186.1377371 -0.241136E-05  0.259E-02    2.05       1.0  T
   3   -186.1377343  0.283935E-05  0.605E-03    2.05       1.5  T
   4   -186.1377378 -0.354968E-05  0.130E-03    2.05       7.0  T
   5   -186.1377378 -0.417006E-07  0.546E-04    2.05      16.5  T
   6   -186.1377379 -0.115635E-07  0.234E-04    2.05      38.6  T
     SCC iter.                  ...        0 min,  1.553 sec
     gradient                   ...        0 min,  0.287 sec
 * total energy  :  -183.3178594 Eh     change       -0.1011528E-03 Eh
   gradient norm :     0.0040940 Eh/α   predicted    -0.6694381E-04 ( -33.82%)
   displ. norm   :     0.0905746 α      lambda       -0.4619940E-04
   maximum displ.:     0.0465484 α      in ANC's #1, #19, #5, ...

........................................................................
.............................. CYCLE   46 ..............................
........................................................................

 iter      E             dE          RMSdq      gap      omega  full diag
   1   -186.1370095 -0.186137E+03  0.133E-02    2.05       0.0  T
   2   -186.1370095 -0.603704E-07  0.778E-03    2.05       1.2  T
   3   -186.1370094  0.808835E-07  0.925E-04    2.05       9.7  T
   4   -186.1370095 -0.104923E-06  0.239E-04    2.05      37.7  T
     SCC iter.                  ...        0 min,  0.958 sec
     gradient                   ...        0 min,  0.284 sec
 * total energy  :  -183.3179022 Eh     change       -0.4283947E-04 Eh
   gradient norm :     0.0032830 Eh/α   predicted    -0.2328925E-04 ( -45.64%)
   displ. norm   :     0.3300353 α      lambda       -0.1642049E-03
   maximum displ.:     0.1659637 α      in ANC's #1, #19, #5, ...

........................................................................
.............................. CYCLE   47 ..............................
........................................................................

 iter      E             dE          RMSdq      gap      omega  full diag
   1   -186.1341926 -0.186134E+03  0.492E-02    2.04       0.0  T
   2   -186.1341935 -0.946355E-06  0.288E-02    2.04       1.0  T
   3   -186.1341923  0.125025E-05  0.372E-03    2.04       2.4  T
   4   -186.1341939 -0.160418E-05  0.771E-04    2.04      11.7  T
   5   -186.1341939 -0.144845E-07  0.363E-04    2.04      24.8  T
   6   -186.1341939 -0.486739E-08  0.158E-04    2.04      57.1  T
     SCC iter.                  ...        0 min,  0.925 sec
     gradient                   ...        0 min,  0.127 sec
 * total energy  :  -183.3180285 Eh     change       -0.1263537E-03 Eh
   gradient norm :     0.0020383 Eh/α   predicted    -0.9104612E-04 ( -27.94%)
   displ. norm   :     0.3667194 α      lambda       -0.1180481E-03
   maximum displ.:     0.1898131 α      in ANC's #1, #19, #5, ...

........................................................................
.............................. CYCLE   48 ..............................
........................................................................

 iter      E             dE          RMSdq      gap      omega  full diag
   1   -186.1320479 -0.186132E+03  0.539E-02    2.04       0.0  T
   2   -186.1320488 -0.874724E-06  0.315E-02    2.04       1.0  T
   3   -186.1320480  0.792272E-06  0.312E-03    2.04       2.9  T
   4   -186.1320491 -0.110511E-05  0.789E-04    2.04      11.4  T
   5   -186.1320491 -0.173288E-07  0.334E-04    2.04      27.0  T
   6   -186.1320491 -0.319113E-08  0.152E-04    2.04      59.4  T
     SCC iter.                  ...        0 min,  0.795 sec
     gradient                   ...        0 min,  0.115 sec
 * total energy  :  -183.3181183 Eh     change       -0.8976952E-04 Eh
   gradient norm :     0.0039613 Eh/α   predicted    -0.6696446E-04 ( -25.40%)
   displ. norm   :     0.3019620 α      lambda       -0.9171298E-04
   maximum displ.:     0.1628236 α      in ANC's #1, #19, #5, ...

........................................................................
.............................. CYCLE   49 ..............................
........................................................................

 iter      E             dE          RMSdq      gap      omega  full diag
   1   -186.1319358 -0.186132E+03  0.431E-02    2.04       0.0  T
   2   -186.1319362 -0.421845E-06  0.253E-02    2.04       1.0  T
   3   -186.1319360  0.196843E-06  0.180E-03    2.04       5.0  T
   4   -186.1319364 -0.348708E-06  0.614E-04    2.04      14.7  T
   5   -186.1319364 -0.136866E-07  0.220E-04    2.04      41.0  T
     SCC iter.                  ...        0 min,  0.632 sec
     gradient                   ...        0 min,  0.126 sec
 * total energy  :  -183.3181981 Eh     change       -0.7977216E-04 Eh
   gradient norm :     0.0042197 Eh/α   predicted    -0.5003802E-04 ( -37.27%)
   displ. norm   :     0.3730095 α      lambda       -0.1384147E-03
   maximum displ.:     0.2079625 α      in ANC's #1, #19, #5, ...

........................................................................
.............................. CYCLE   50 ..............................
........................................................................

 iter      E             dE          RMSdq      gap      omega  full diag
   1   -186.1335710 -0.186134E+03  0.518E-02    2.04       0.0  T
   2   -186.1335716 -0.547307E-06  0.303E-02    2.04       1.0  T
   3   -186.1335713  0.273294E-06  0.219E-03    2.04       4.1  T
   4   -186.1335718 -0.494110E-06  0.798E-04    2.04      11.3  T
   5   -186.1335718 -0.197535E-07  0.294E-04    2.04      30.6  T
     SCC iter.                  ...        0 min,  0.654 sec
     gradient                   ...        0 min,  0.131 sec
 * total energy  :  -183.3183154 Eh     change       -0.1173463E-03 Eh
   gradient norm :     0.0028861 Eh/α   predicted    -0.7883762E-04 ( -32.82%)
   displ. norm   :     0.4502113 α      lambda       -0.1455164E-03
   maximum displ.:     0.2578348 α      in ANC's #1, #19, #5, ...

........................................................................
.............................. CYCLE   51 ..............................
........................................................................

 iter      E             dE          RMSdq      gap      omega  full diag
   1   -186.1349447 -0.186135E+03  0.609E-02    2.04       0.0  T
   2   -186.1349455 -0.773678E-06  0.357E-02    2.04       1.0  T
   3   -186.1349450  0.530727E-06  0.303E-03    2.04       3.0  T
   4   -186.1349458 -0.875033E-06  0.101E-03    2.04       8.9  T
   5   -186.1349459 -0.163469E-07  0.369E-04    2.04      24.4  T
   6   -186.1349459 -0.709821E-08  0.190E-04    2.04      47.5  T
     SCC iter.                  ...        0 min,  0.819 sec
     gradient                   ...        0 min,  0.135 sec
 * total energy  :  -183.3184352 Eh     change       -0.1197493E-03 Eh
   gradient norm :     0.0016355 Eh/α   predicted    -0.8750707E-04 ( -26.92%)
   displ. norm   :     0.6791330 α      lambda       -0.1167368E-03
   maximum displ.:     0.3956055 α      in ANC's #1, #19, #5, ...

........................................................................
.............................. CYCLE   52 ..............................
........................................................................

 iter      E             dE          RMSdq      gap      omega  full diag
   1   -186.1350060 -0.186135E+03  0.905E-02    2.04       0.0  T
   2   -186.1350077 -0.167291E-05  0.530E-02    2.04       1.0  T
   3   -186.1350066  0.107734E-05  0.449E-03    2.04       2.0  T
   4   -186.1350084 -0.182615E-05  0.157E-03    2.04       5.8  T
   5   -186.1350084 -0.339360E-07  0.528E-04    2.04      17.1  T
   6   -186.1350085 -0.153016E-07  0.276E-04    2.04      32.7  T
     SCC iter.                  ...        0 min,  0.802 sec
     gradient                   ...        0 min,  0.133 sec
 * total energy  :  -183.3185743 Eh     change       -0.1391405E-03 Eh
   gradient norm :     0.0024013 Eh/α   predicted    -0.7033455E-04 ( -49.45%)
   displ. norm   :     0.3439378 α      lambda       -0.8316032E-04
   maximum displ.:     0.2061242 α      in ANC's #1, #19, #5, ...

........................................................................
.............................. CYCLE   53 ..............................
........................................................................

 iter      E             dE          RMSdq      gap      omega  full diag
   1   -186.1356408 -0.186136E+03  0.445E-02    2.04       0.0  T
   2   -186.1356412 -0.386430E-06  0.260E-02    2.04       1.0  T
   3   -186.1356411  0.122402E-06  0.192E-03    2.03       4.7  T
   4   -186.1356414 -0.285631E-06  0.804E-04    2.03      11.2  T
   5   -186.1356414 -0.131464E-07  0.234E-04    2.03      38.6  T
     SCC iter.                  ...        0 min,  0.670 sec
     gradient                   ...        0 min,  0.137 sec
 * total energy  :  -183.3186477 Eh     change       -0.7340920E-04 Eh
   gradient norm :     0.0022132 Eh/α   predicted    -0.4649916E-04 ( -36.66%)
   displ. norm   :     0.3830148 α      lambda       -0.1005817E-03
   maximum displ.:     0.2340035 α      in ANC's #1, #19, #5, ...

........................................................................
.............................. CYCLE   54 ..............................
........................................................................

 iter      E             dE          RMSdq      gap      omega  full diag
   1   -186.1365235 -0.186137E+03  0.482E-02    2.03       0.0  T
   2   -186.1365240 -0.531725E-06  0.282E-02    2.03       1.0  T
   3   -186.1365237  0.331177E-06  0.251E-03    2.03       3.6  T
   4   -186.1365242 -0.548472E-06  0.100E-03    2.03       9.0  T
   5   -186.1365242 -0.220372E-07  0.311E-04    2.03      29.0  T
     SCC iter.                  ...        0 min,  0.720 sec
     gradient                   ...        0 min,  0.122 sec
 * total energy  :  -183.3187343 Eh     change       -0.8659337E-04 Eh
   gradient norm :     0.0017165 Eh/α   predicted    -0.5767115E-04 ( -33.40%)
   displ. norm   :     0.6451633 α      lambda       -0.1025030E-03
   maximum displ.:     0.3987562 α      in ANC's #1, #19, #5, ...

........................................................................
.............................. CYCLE   55 ..............................
........................................................................

 iter      E             dE          RMSdq      gap      omega  full diag
   1   -186.1353410 -0.186135E+03  0.808E-02    2.03       0.0  T
   2   -186.1353426 -0.160966E-05  0.472E-02    2.03       1.0  T
   3   -186.1353411  0.144529E-05  0.477E-03    2.03       1.9  T
   4   -186.1353432 -0.208090E-05  0.187E-03    2.03       4.8  T
   5   -186.1353433 -0.108493E-06  0.553E-04    2.03      16.3  T
   6   -186.1353433 -0.216129E-07  0.267E-04    2.03      33.8  T
     SCC iter.                  ...        0 min,  0.769 sec
     gradient                   ...        0 min,  0.137 sec
 * total energy  :  -183.3188437 Eh     change       -0.1094084E-03 Eh
   gradient norm :     0.0019183 Eh/α   predicted    -0.6073734E-04 ( -44.49%)
   displ. norm   :     0.3456141 α      lambda       -0.5317857E-04
   maximum displ.:     0.2248653 α      in ANC's #1, #4, #19, ...

........................................................................
.............................. CYCLE   56 ..............................
........................................................................

 iter      E             dE          RMSdq      gap      omega  full diag
   1   -186.1375552 -0.186138E+03  0.379E-02    2.03       0.0  T
   2   -186.1375557 -0.569936E-06  0.220E-02    2.03       1.0  T
   3   -186.1375551  0.655418E-06  0.310E-03    2.02       2.9  T
   4   -186.1375559 -0.832863E-06  0.128E-03    2.03       7.0  T
   5   -186.1375560 -0.780017E-07  0.350E-04    2.03      25.7  T
   6   -186.1375560 -0.842502E-08  0.156E-04    2.03      57.7  T
     SCC iter.                  ...        0 min,  0.938 sec
     gradient                   ...        0 min,  0.138 sec
 * total energy  :  -183.3189003 Eh     change       -0.5657914E-04 Eh
   gradient norm :     0.0021575 Eh/α   predicted    -0.2800237E-04 ( -50.51%)
   displ. norm   :     0.2319497 α      lambda       -0.5445957E-04
   maximum displ.:     0.1489940 α      in ANC's #1, #19, #4, ...

........................................................................
.............................. CYCLE   57 ..............................
........................................................................

 iter      E             dE          RMSdq      gap      omega  full diag
   1   -186.1366933 -0.186137E+03  0.279E-02    2.02       0.0  T
   2   -186.1366936 -0.276293E-06  0.162E-02    2.02       1.0  T
   3   -186.1366932  0.330279E-06  0.220E-03    2.02       4.1  T
   4   -186.1366936 -0.408600E-06  0.918E-04    2.02       9.8  T
   5   -186.1366937 -0.456503E-07  0.234E-04    2.02      38.6  T
     SCC iter.                  ...        0 min,  0.740 sec
     gradient                   ...        0 min,  0.130 sec
 * total energy  :  -183.3189474 Eh     change       -0.4708923E-04 Eh
   gradient norm :     0.0012890 Eh/α   predicted    -0.2869850E-04 ( -39.06%)
   displ. norm   :     0.4590330 α      lambda       -0.7863413E-04
   maximum displ.:     0.2911162 α      in ANC's #1, #19, #4, ...

........................................................................
.............................. CYCLE   58 ..............................
........................................................................

 iter      E             dE          RMSdq      gap      omega  full diag
   1   -186.1355780 -0.186136E+03  0.507E-02    2.02       0.0  T
   2   -186.1355792 -0.118645E-05  0.293E-02    2.02       1.0  T
   3   -186.1355778  0.141680E-05  0.466E-03    2.02       1.9  T
   4   -186.1355795 -0.173694E-05  0.197E-03    2.02       4.6  T
   5   -186.1355797 -0.205334E-06  0.469E-04    2.02      19.2  T
   6   -186.1355797 -0.123673E-07  0.213E-04    2.02      42.3  T
     SCC iter.                  ...        0 min,  0.880 sec
     gradient                   ...        0 min,  0.133 sec
 * total energy  :  -183.3190358 Eh     change       -0.8841720E-04 Eh
[...]
    14   1 H    0.997 --    12 C    0.983
    15   1 H    0.999 --    12 C    0.978
    16   6 C    3.993 --     2 C    0.999    17 H    0.982    19 H    0.982
                            18 H    0.980
    17   1 H    0.997 --    16 C    0.982
    18   1 H    0.997 --    16 C    0.980
    19   1 H    0.998 --    16 C    0.982
    20   6 C    3.988 --    22 C    1.344    21 C    1.338     1 C    1.125
    21   6 C    3.985 --    23 C    1.467    20 C    1.338    24 H    0.965
                            25 C    0.101
    22   6 C    3.987 --    25 C    1.466    20 C    1.344    26 H    0.965
    23   6 C    3.989 --    21 C    1.467    27 C    1.420    28 H    0.969
    24   1 H    0.998 --    21 C    0.965
    25   6 C    3.992 --    22 C    1.466    27 C    1.422    29 H    0.970
                            21 C    0.101
    26   1 H    0.998 --    22 C    0.965
    27   6 C    3.971 --    25 C    1.422    23 C    1.420    30 H    0.971
    28   1 H    0.998 --    23 C    0.969
    29   1 H    0.998 --    25 C    0.970
    30   1 H    0.998 --    27 C    0.971
    31  16 S    4.916 --    33 O    1.608    32 O    1.583    48 N    0.878
                            34 C    0.748
    32   8 O    1.881 --    31 S    1.583    33 O    0.104
    33   8 O    1.902 --    31 S    1.608    32 O    0.104
    34   6 C    3.958 --    36 C    1.419    35 C    1.405    31 S    0.748
                            41 C    0.102
    35   6 C    3.987 --    37 C    1.457    34 C    1.405    38 H    0.966
                            39 C    0.105
    36   6 C    3.986 --    39 C    1.440    34 C    1.419    40 H    0.965
                            37 C    0.107
    37   6 C    3.987 --    35 C    1.457    41 C    1.394    42 H    0.966
                            36 C    0.107
    38   1 H    0.997 --    35 C    0.966
    39   6 C    3.987 --    36 C    1.440    41 C    1.409    43 H    0.965
                            35 C    0.105
    40   1 H    0.997 --    36 C    0.965
    41   6 C    3.985 --    39 C    1.409    37 C    1.394    44 C    1.033
                            34 C    0.102
    42   1 H    0.995 --    37 C    0.966
    43   1 H    0.995 --    39 C    0.965
    44   6 C    3.992 --    41 C    1.033    46 H    0.984    47 H    0.968
                            45 H    0.964
    45   1 H    0.995 --    44 C    0.964
    46   1 H    0.996 --    44 C    0.984
    47   1 H    0.995 --    44 C    0.968
    48   7 N    3.141 --     4 C    0.989     5 C    0.956    31 S    0.878
    49   8 O    2.210 --    53 C    1.052    59 C    0.940
    50   8 O    1.963 --    61 C    0.980    89 H    0.882
    51   8 O    2.247 --    57 C    1.073    74 C    0.944
    52   8 O    1.966 --    76 C    0.982    90 H    0.886
    53   6 C    3.931 --    54 C    1.360    58 C    1.335    49 O    1.052
    54   6 C    3.981 --    55 C    1.439    53 C    1.360    91 H    0.961
    55   6 C    3.983 --    54 C    1.439    56 C    1.428    92 H    0.970
    56   6 C    3.979 --    55 C    1.428    57 C    1.368    93 H    0.962
    57   6 C    3.934 --    56 C    1.368    58 C    1.317    51 O    1.073
    58   6 C    3.955 --    53 C    1.335    57 C    1.317   122 S    1.041
    59   6 C    3.934 --    60 C    1.003    94 H    0.952    49 O    0.940
                            61 C    0.935
    60   6 C    3.989 --    59 C    1.003    96 H    0.982    97 H    0.980
                            95 H    0.974
    61   6 C    3.945 --    50 O    0.980    62 C    0.964    68 C    0.962
                            59 C    0.935
    62   6 C    3.984 --    67 C    1.416    63 C    1.409    61 C    0.964
                            65 C    0.109
    63   6 C    3.991 --    64 C    1.448    62 C    1.409    98 H    0.967
                            66 C    0.112
    64   6 C    3.991 --    63 C    1.448    65 C    1.434    99 H    0.970
                            67 C    0.111
    65   6 C    3.990 --    66 C    1.442    64 C    1.434   100 H    0.971
                            62 C    0.109
    66   6 C    3.991 --    65 C    1.442    67 C    1.439   101 H    0.970
                            63 C    0.112
    67   6 C    3.989 --    66 C    1.439    62 C    1.416   102 H    0.966
                            64 C    0.111
    68   6 C    3.986 --    69 C    1.420    73 C    1.409    61 C    0.962
                            71 C    0.110
    69   6 C    3.991 --    70 C    1.436    68 C    1.420   103 H    0.962
                            72 C    0.110
    70   6 C    3.992 --    71 C    1.444    69 C    1.436   104 H    0.971
                            73 C    0.112
    71   6 C    3.991 --    70 C    1.444    72 C    1.434   105 H    0.971
                            68 C    0.110
    72   6 C    3.991 --    73 C    1.450    71 C    1.434   106 H    0.970
                            69 C    0.110
    73   6 C    3.991 --    72 C    1.450    68 C    1.409   107 H    0.968
                            70 C    0.112
    74   6 C    3.935 --    75 C    1.001   108 H    0.953    51 O    0.944
                            76 C    0.941
    75   6 C    3.990 --    74 C    1.001   110 H    0.983   109 H    0.982
                           111 H    0.981
    76   6 C    3.949 --    52 O    0.982    77 C    0.966    83 C    0.961
                            74 C    0.941
    77   6 C    3.985 --    78 C    1.418    82 C    1.408    76 C    0.966
                            80 C    0.109
    78   6 C    3.989 --    79 C    1.438    77 C    1.418   112 H    0.966
                            81 C    0.110
    79   6 C    3.991 --    80 C    1.443    78 C    1.438   113 H    0.970
                            82 C    0.112
    80   6 C    3.990 --    79 C    1.443    81 C    1.434   114 H    0.971
                            77 C    0.109
    81   6 C    3.992 --    82 C    1.450    80 C    1.434   115 H    0.971
                            78 C    0.110
    82   6 C    3.991 --    81 C    1.450    77 C    1.408   116 H    0.968
                            79 C    0.112
    83   6 C    3.986 --    84 C    1.420    88 C    1.409    76 C    0.961
                            86 C    0.110
    84   6 C    3.991 --    85 C    1.437    83 C    1.420   117 H    0.966
                            87 C    0.110
    85   6 C    3.992 --    86 C    1.443    84 C    1.437   118 H    0.971
                            88 C    0.112
    86   6 C    3.991 --    85 C    1.443    87 C    1.434   119 H    0.971
                            83 C    0.110
    87   6 C    3.992 --    88 C    1.450    86 C    1.434   120 H    0.970
                            84 C    0.110
    88   6 C    3.991 --    87 C    1.450    83 C    1.409   121 H    0.968
                            85 C    0.112
    89   1 H    0.909 --    50 O    0.882
    90   1 H    0.907 --    52 O    0.886
    91   1 H    0.998 --    54 C    0.961
    92   1 H    0.997 --    55 C    0.970
    93   1 H    0.997 --    56 C    0.962
    94   1 H    0.999 --    59 C    0.952
    95   1 H    0.996 --    60 C    0.974
    96   1 H    0.997 --    60 C    0.982
    97   1 H    0.997 --    60 C    0.980
    98   1 H    0.999 --    63 C    0.967
    99   1 H    0.998 --    64 C    0.970
   100   1 H    0.998 --    65 C    0.971
   101   1 H    0.998 --    66 C    0.970
   102   1 H    0.998 --    67 C    0.966
   103   1 H    1.000 --    69 C    0.962
   104   1 H    0.998 --    70 C    0.971
   105   1 H    0.998 --    71 C    0.971
   106   1 H    0.998 --    72 C    0.970
   107   1 H    0.998 --    73 C    0.968
   108   1 H    0.999 --    74 C    0.953
   109   1 H    0.996 --    75 C    0.982
   110   1 H    0.997 --    75 C    0.983
   111   1 H    0.997 --    75 C    0.981
   112   1 H    0.997 --    78 C    0.966
   113   1 H    0.998 --    79 C    0.970
   114   1 H    0.998 --    80 C    0.971
   115   1 H    0.998 --    81 C    0.971
   116   1 H    0.999 --    82 C    0.968
   117   1 H    0.999 --    84 C    0.966
   118   1 H    0.998 --    85 C    0.971
   119   1 H    0.998 --    86 C    0.971
   120   1 H    0.998 --    87 C    0.970
   121   1 H    0.998 --    88 C    0.968
   122  16 S    2.069 --    58 C    1.041   123 H    0.670     1 C    0.117
   123   1 H    0.969 --   122 S    0.670     1 C    0.265
 ---------------------------------------------------------------------------

Topologies differ in total number of bonds
Writing topology from bond orders to xtbtopo.mol

molecular dipole:
                 x           y           z       tot (Debye)
 q only:        1.083      -3.403      -1.569
   full:        1.468      -3.232      -1.350       9.652
molecular quadrupole (traceless):
                xx          xy          yy          xz          yz          zz
 q only:      -28.628      18.534      74.814       0.919     -26.826     -46.186
  q+dip:      -11.014      18.866      67.337      -4.217     -28.599     -56.322
   full:      -16.094      20.377      68.351      -2.543     -23.944     -52.257

           -------------------------------------------------
          |                Geometry Summary                 |
           -------------------------------------------------

      molecular mass/u    :      905.1944814
   center of mass at/Å    :        0.8750388      -1.0391644       0.8514633
  moments of inertia/u·Å² :        0.1006074E+05   0.2107808E+05   0.2702694E+05
rotational constants/cm⁻¹ :        0.1675586E-02   0.7997706E-03   0.6237345E-03

 * 116 selected distances

     #   Z          #   Z                                           value/Å
     3   6 C        4   6 C                                       1.5232767
     3   6 C        6   1 H                                       1.0906049
     4   6 C        7   1 H                                       1.0991812
     4   6 C        8   1 H                                       1.0923001
     5   6 C        9   1 H                                       1.1003899
     5   6 C       10   1 H                                       1.0876734
     3   6 C       11   1 H                                       1.0913714
     2   6 C       12   6 C                                       1.5355893
    12   6 C       13   1 H                                       1.0873039
    12   6 C       14   1 H                                       1.0874940
    12   6 C       15   1 H                                       1.0854857
     2   6 C       16   6 C                                       1.5307654
    16   6 C       17   1 H                                       1.0876128
    16   6 C       18   1 H                                       1.0863085
    16   6 C       19   1 H                                       1.0864534
    20   6 C       21   6 C                                       1.4033351
    20   6 C       22   6 C                                       1.4030065
    21   6 C       23   6 C                                       1.3805071
    21   6 C       24   1 H                                       1.0788124
    22   6 C       25   6 C                                       1.3798831
    22   6 C       26   1 H                                       1.0778899
    23   6 C       27   6 C                                       1.3866848
    25   6 C       27   6 C                                       1.3859955
    23   6 C       28   1 H                                       1.0810820
    25   6 C       29   1 H                                       1.0802158
    27   6 C       30   1 H                                       1.0798654
    31  16 S       32   8 O                                       1.4451489
    31  16 S       33   8 O                                       1.4404609
    31  16 S       34   6 C                                       1.7841176 (max)
    34   6 C       35   6 C                                       1.3832118
    34   6 C       36   6 C                                       1.3813667
    35   6 C       37   6 C                                       1.3825057
    35   6 C       38   1 H                                       1.0780501
    36   6 C       39   6 C                                       1.3846550
    36   6 C       40   1 H                                       1.0789376
    37   6 C       41   6 C                                       1.3947131
    39   6 C       41   6 C                                       1.3911308
    37   6 C       42   1 H                                       1.0796777
    39   6 C       43   1 H                                       1.0796928
    44   6 C       45   1 H                                       1.0889657
    44   6 C       46   1 H                                       1.0860820
    44   6 C       47   1 H                                       1.0884723
     4   6 C       48   7 N                                       1.4480877
     5   6 C       48   7 N                                       1.4624092
    31  16 S       48   7 N                                       1.6901843
    49   8 O       53   6 C                                       1.3630195
    53   6 C       54   6 C                                       1.3914337
    54   6 C       55   6 C                                       1.3808696
    55   6 C       56   6 C                                       1.3831963
    51   8 O       57   6 C                                       1.3553749
    56   6 C       57   6 C                                       1.3889433
    53   6 C       58   6 C                                       1.3982302
    57   6 C       58   6 C                                       1.4019913
    49   8 O       59   6 C                                       1.4295139
    59   6 C       60   6 C                                       1.5258267
    50   8 O       61   6 C                                       1.4169733
    62   6 C       63   6 C                                       1.3899017
    63   6 C       64   6 C                                       1.3833675
    64   6 C       65   6 C                                       1.3850949
    65   6 C       66   6 C                                       1.3841790
    62   6 C       67   6 C                                       1.3880143
    66   6 C       67   6 C                                       1.3842304
    68   6 C       69   6 C                                       1.3887137
    69   6 C       70   6 C                                       1.3854028
    70   6 C       71   6 C                                       1.3827886
    71   6 C       72   6 C                                       1.3847839
    68   6 C       73   6 C                                       1.3917269
    72   6 C       73   6 C                                       1.3819019
    51   8 O       74   6 C                                       1.4224564
    74   6 C       75   6 C                                       1.5276510
    52   8 O       76   6 C                                       1.4176171
    77   6 C       78   6 C                                       1.3873588
    78   6 C       79   6 C                                       1.3843460
    79   6 C       80   6 C                                       1.3839476
    80   6 C       81   6 C                                       1.3853066
    77   6 C       82   6 C                                       1.3900660
    81   6 C       82   6 C                                       1.3831378
    83   6 C       84   6 C                                       1.3878905
    84   6 C       85   6 C                                       1.3855139
    85   6 C       86   6 C                                       1.3833781
    86   6 C       87   6 C                                       1.3846979
    83   6 C       88   6 C                                       1.3912584
    87   6 C       88   6 C                                       1.3819747
    50   8 O       89   1 H                                       0.9656177 (min)
    52   8 O       90   1 H                                       0.9661485
    54   6 C       91   1 H                                       1.0784477
    55   6 C       92   1 H                                       1.0792841
    56   6 C       93   1 H                                       1.0776049
    59   6 C       94   1 H                                       1.0921632
    60   6 C       95   1 H                                       1.0885064
    60   6 C       96   1 H                                       1.0866681
    60   6 C       97   1 H                                       1.0877408
    63   6 C       98   1 H                                       1.0800446
    64   6 C       99   1 H                                       1.0802647
    65   6 C      100   1 H                                       1.0801042
    66   6 C      101   1 H                                       1.0802534
    67   6 C      102   1 H                                       1.0788320
    69   6 C      103   1 H                                       1.0794980
    70   6 C      104   1 H                                       1.0806386
    71   6 C      105   1 H                                       1.0799629
    72   6 C      106   1 H                                       1.0801701
    73   6 C      107   1 H                                       1.0804323
    74   6 C      108   1 H                                       1.0962571
    75   6 C      109   1 H                                       1.0876369
    75   6 C      110   1 H                                       1.0862001
    75   6 C      111   1 H                                       1.0872872
    78   6 C      112   1 H                                       1.0785216
    79   6 C      113   1 H                                       1.0802939
    80   6 C      114   1 H                                       1.0801910
    81   6 C      115   1 H                                       1.0803864
    82   6 C      116   1 H                                       1.0802289
    84   6 C      117   1 H                                       1.0792822
    85   6 C      118   1 H                                       1.0804749
    86   6 C      119   1 H                                       1.0799106
    87   6 C      120   1 H                                       1.0801720
    88   6 C      121   1 H                                       1.0802660

 * 8 distinct bonds (by element types)

   Z      Z             #   av. dist./Å        max./Å        min./Å
   1 H    6 C          55     1.0837754     1.1003899     1.0776049
   6 C    6 C          47     1.4022075     1.5355893     1.3798831
   6 C    7 N           2     1.4552484     1.4624092     1.4480877
   1 H    8 O           2     0.9658831     0.9661485     0.9656177
   6 C    8 O           6     1.4008258     1.4295139     1.3553749
   6 C   16 S           1     1.7841176     1.7841176     1.7841176
   7 N   16 S           1     1.6901843     1.6901843     1.6901843
   8 O   16 S           2     1.4428049     1.4451489     1.4404609


optimized geometry written to: xtbopt.mol


           -------------------------------------------------
          | TOTAL ENERGY             -183.323937875001 Eh   |
          | GRADIENT NORM               0.000528327889 Eh/α |
          | HOMO-LUMO GAP               2.022465823069 eV   |
           -------------------------------------------------

------------------------------------------------------------------------
 * finished run on 2024/06/20 at 21:04:54.984     
------------------------------------------------------------------------
 total:
 * wall-time:     0 d,  0 h,  2 min, 49.621 sec
 *  cpu-time:     0 d,  0 h, 16 min,  8.893 sec
 * ratio c/w:     5.712 speedup
 SCF:
 * wall-time:     0 d,  0 h,  0 min,  2.781 sec
 *  cpu-time:     0 d,  0 h,  0 min, 12.194 sec
 * ratio c/w:     4.384 speedup
 ANC optimizer:
 * wall-time:     0 d,  0 h,  2 min, 46.634 sec
 *  cpu-time:     0 d,  0 h, 15 min, 55.703 sec
 * ratio c/w:     5.735 speedup

