123
 energy: -182.970943681012 gnorm: 0.267398741305 xtb: 6.6.1 (8d0f1dd)
C            0.42160000000000       -2.95230000000000        0.68550000000000
C           -0.81870000000000       -3.32280000000000       -0.14750000000000
C           -0.50470000000000       -4.72140000000000       -0.74890000000000
C            0.81170000000000       -4.78320000000000       -1.51660000000000
C            1.68870000000000       -2.96280000000000       -0.13920000000000
H           -1.33320000000000       -5.01320000000000       -1.41390000000000
H            0.78080000000000       -4.16790000000000       -2.43420000000000
H            1.01380000000000       -5.82010000000000       -1.82310000000000
H            1.62190000000000       -2.25530000000000       -0.98550000000000
H            2.55010000000000       -2.67020000000000        0.46670000000000
H           -0.46030000000000       -5.45160000000000        0.07530000000000
C           -1.07060000000000       -2.31460000000000       -1.28450000000000
H           -1.39020000000000       -1.34380000000000       -0.87750000000000
H           -1.89030000000000       -2.68210000000000       -1.91950000000000
H           -0.19930000000000       -2.14760000000000       -1.93000000000000
C           -2.11750000000000       -3.42280000000000        0.64950000000000
H           -2.92910000000000       -3.74340000000000       -0.02250000000000
H           -2.39340000000000       -2.43660000000000        1.05080000000000
H           -2.05490000000000       -4.13920000000000        1.48060000000000
C            0.58700000000000       -3.32090000000000        2.10360000000000
C            1.77690000000000       -3.94630000000000        2.54490000000000
C           -0.36920000000000       -2.98670000000000        3.08810000000000
C            1.96780000000000       -4.26550000000000        3.88540000000000
H            2.56030000000000       -4.19670000000000        1.82830000000000
C           -0.16610000000000       -3.29400000000000        4.42910000000000
H           -1.26120000000000       -2.42610000000000        2.80720000000000
C            0.99610000000000       -3.94900000000000        4.83580000000000
H            2.88940000000000       -4.76630000000000        4.18870000000000
H           -0.91890000000000       -3.01440000000000        5.16780000000000
H            1.14720000000000       -4.19480000000000        5.88820000000000
S            3.44370000000000       -4.72620000000000       -1.07610000000000
O            3.70090000000000       -4.39770000000000       -2.46960000000000
O            4.29560000000000       -4.17050000000000       -0.03200000000000
C            3.41100000000000       -6.49650000000000       -0.93190000000000
C            3.04030000000000       -7.08690000000000        0.27770000000000
C            3.80310000000000       -7.26000000000000       -2.02460000000000
C            3.06470000000000       -8.47130000000000        0.37980000000000
H            2.72320000000000       -6.46550000000000        1.11750000000000
C            3.82570000000000       -8.64930000000000       -1.90050000000000
H            4.08070000000000       -6.76100000000000       -2.95400000000000
C            3.46050000000000       -9.27250000000000       -0.70400000000000
H            2.77100000000000       -8.94670000000000        1.31810000000000
H            4.13140000000000       -9.25940000000000       -2.75250000000000
C            3.49260000000000      -10.77040000000000       -0.56290000000000
H            4.26540000000000      -11.07440000000000        0.15870000000000
H            3.71100000000000      -11.25830000000000       -1.52090000000000
H            2.53010000000000      -11.15050000000000       -0.19200000000000
N            1.88280000000000       -4.33470000000000       -0.63190000000000
O            2.33270000000000       -1.02590000000000        1.42930000000000
O            0.71240000000000       -1.60230000000000        3.46320000000000
O            1.05190000000000        1.69660000000000       -2.18530000000000
O           -1.18420000000000        2.08850000000000       -3.60970000000000
C            2.71020000000000       -0.20850000000000        0.41920000000000
C            4.05640000000000        0.07430000000000        0.16560000000000
C            4.39420000000000        0.89270000000000       -0.90680000000000
C            3.40810000000000        1.43800000000000       -1.72660000000000
C            2.06250000000000        1.16600000000000       -1.46080000000000
C            1.69890000000000        0.32440000000000       -0.39440000000000
C            2.85570000000000       -0.84780000000000        2.74600000000000
C            3.57620000000000       -2.11550000000000        3.16300000000000
C            1.61610000000000       -0.53500000000000        3.62580000000000
C            2.02250000000000       -0.47390000000000        5.09290000000000
C            2.82410000000000        0.57560000000000        5.55570000000000
C            3.24790000000000        0.60970000000000        6.88180000000000
C            2.86620000000000       -0.40110000000000        7.76470000000000
C            2.05890000000000       -1.44190000000000        7.31070000000000
C            1.64000000000000       -1.48210000000000        5.98020000000000
C            0.93470000000000        0.77510000000000        3.20290000000000
C            1.59750000000000        1.83460000000000        2.57610000000000
C            0.90280000000000        2.98540000000000        2.19890000000000
C           -0.46030000000000        3.09810000000000        2.45470000000000
C           -1.12640000000000        2.05420000000000        3.09740000000000
C           -0.43480000000000        0.90470000000000        3.46550000000000
C            1.19790000000000        1.95320000000000       -3.57910000000000
C            1.37910000000000        3.43990000000000       -3.82420000000000
C           -0.10810000000000        1.39020000000000       -4.19270000000000
C           -0.13290000000000        1.64360000000000       -5.69420000000000
C           -0.99990000000000        2.59150000000000       -6.24170000000000
C           -0.98170000000000        2.84880000000000       -7.61320000000000
C           -0.09650000000000        2.16820000000000       -8.44620000000000
C            0.76940000000000        1.21840000000000       -7.90300000000000
C            0.74750000000000        0.95460000000000       -6.53580000000000
C           -0.25600000000000       -0.10840000000000       -3.88960000000000
C            0.82270000000000       -0.95960000000000       -3.62390000000000
C            0.60810000000000       -2.30250000000000       -3.31060000000000
C           -0.68560000000000       -2.81640000000000       -3.26760000000000
C           -1.76620000000000       -1.97920000000000       -3.54600000000000
C           -1.55210000000000       -0.63730000000000       -3.85230000000000
H            0.51450000000000       -1.64400000000000        2.51420000000000
H           -1.08060000000000        1.99600000000000       -2.65060000000000
H            4.82570000000000       -0.36770000000000        0.79960000000000
H            5.44320000000000        1.11070000000000       -1.11100000000000
H            3.67880000000000        2.09520000000000       -2.55270000000000
H            3.55300000000000        0.00370000000000        2.75960000000000
H            2.85890000000000       -2.94580000000000        3.20500000000000
H            4.03860000000000       -1.99590000000000        4.15120000000000
H            4.35620000000000       -2.35770000000000        2.42850000000000
H            3.10620000000000        1.38390000000000        4.87700000000000
H            3.87170000000000        1.43440000000000        7.23000000000000
H            3.19330000000000       -0.37270000000000        8.80510000000000
H            1.75090000000000       -2.23250000000000        7.99710000000000
H            1.01180000000000       -2.29370000000000        5.61520000000000
H            2.66250000000000        1.77550000000000        2.34630000000000
H            1.43550000000000        3.79170000000000        1.69220000000000
H           -1.00340000000000        3.99500000000000        2.15310000000000
H           -2.19440000000000        2.13320000000000        3.30650000000000
H           -0.95350000000000        0.07780000000000        3.95180000000000
H            2.06200000000000        1.39640000000000       -3.97290000000000
H            0.47860000000000        3.97810000000000       -3.50060000000000
H            1.54530000000000        3.63900000000000       -4.89100000000000
H            2.23860000000000        3.81510000000000       -3.25270000000000
H           -1.68630000000000        3.12120000000000       -5.58230000000000
H           -1.66580000000000        3.58850000000000       -8.03210000000000
H           -0.08370000000000        2.37190000000000       -9.51800000000000
H            1.45970000000000        0.67340000000000       -8.54870000000000
H            1.41120000000000        0.19190000000000       -6.12140000000000
H            1.84820000000000       -0.58670000000000       -3.62670000000000
H            1.46130000000000       -2.94400000000000       -3.08560000000000
H           -0.85200000000000       -3.86420000000000       -3.01410000000000
H           -2.78380000000000       -2.37170000000000       -3.51770000000000
H           -2.39370000000000        0.02690000000000       -4.05240000000000
S            0.00000000000000        0.00000000000000        0.00000000000000
H            0.19980000000000       -1.39900000000000        0.32480000000000
123
 energy: -183.097163388477 gnorm: 0.146806110228 xtb: 6.6.1 (8d0f1dd)
C            0.42160000000000       -2.95230000000000        0.68550000000000
C           -0.81981525509391       -3.33792372086454       -0.11788994708652
C           -0.50880613059778       -4.72720266911807       -0.74046327866473
C            0.81346290570572       -4.79877394218801       -1.50053637338203
C            1.68177208952891       -2.98322038397839       -0.14595524325922
H           -1.33091625518926       -5.01756922769155       -1.40518634828670
H            0.79261410639350       -4.20547045904960       -2.41075937540565
H            1.02074006230267       -5.82661717221552       -1.81019191763452
H            1.62575486161228       -2.26880232881645       -0.98274168527617
H            2.54756560989285       -2.69939569595416        0.44854748931231
H           -0.46295673177236       -5.45246809897393        0.07641388991886
C           -1.09914730420941       -2.32082640124981       -1.20639374221114
H           -1.42573289111808       -1.34999941697618       -0.85339605368972
H           -1.89708787730047       -2.68774157682000       -1.83680019070076
H           -0.24020388129805       -2.14995726197237       -1.84940869382587
C           -2.12453279872269       -3.42810020523700        0.66189612443966
H           -2.92393786201460       -3.74351918388685       -0.01465093574771
H           -2.39583802339615       -2.44375234998308        1.04981820697745
H           -2.05874609013413       -4.14098179323174        1.48185599585199
C            0.56087012572454       -3.37862818431430        2.07818537040641
C            1.74461810130590       -3.99524577608583        2.53325802769066
C           -0.40460429224010       -3.05273860885131        3.08100525651269
C            1.93308885975258       -4.31556419409146        3.87941436788595
H            2.53972997287583       -4.21401740719887        1.82672995672652
C           -0.21077927266581       -3.38006307487351        4.42072439488855
H           -1.27148480914302       -2.45663329735305        2.81090970715241
C            0.97049665594141       -3.99859708919954        4.82711257545050
H            2.87389000518598       -4.76834539831747        4.18827492539527
H           -0.92465345874279       -3.03172517046129        5.16251974596098
H            1.14488451539799       -4.20969728380693        5.87739075627594
S            3.44134634678814       -4.73033197898072       -1.07560660699986
O            3.69983383833669       -4.39328875014124       -2.46456768045464
O            4.29395075264186       -4.17201648401038       -0.04090199644555
C            3.41456471393603       -6.50346547651823       -0.93028082507634
C            3.04164796938114       -7.09154949676469        0.27242536007598
C            3.80172980886087       -7.26649572748855       -2.01871419276866
C            3.06447433902024       -8.47272496441411        0.37650844132533
H            2.72845132156237       -6.47066784786615        1.10573592236807
C            3.82304107598781       -8.65105617603853       -1.89806021826788
H            4.07732015291986       -6.76675851002015       -2.94252081623264
C            3.45960208462340       -9.27220253560311       -0.70339251409628
H            2.77284653220632       -8.94394731958490        1.31036935161522
H            4.12832330795097       -9.25567147036946       -2.74644570618057
C            3.49146089831912      -10.76811312734689       -0.56352356162087
H            4.26005115560327      -11.06962026336976        0.15480486722746
H            3.70884448119006      -11.25312053032650       -1.51654588436653
H            2.53414071084404      -11.14518754786872       -0.19372001853034
N            1.88325720155964       -4.34517426823727       -0.62904946983723
O            2.32936715064485       -0.99958031042149        1.44461517293919
O            0.73509019430691       -1.51346859570591        3.46241010941215
O            1.04605834566977        1.69472809821858       -2.18124318780080
O           -1.18816050535070        2.08947936445370       -3.60744259191209
C            2.71476419181504       -0.19159549785295        0.42532298150141
C            4.05565076107650        0.07624450456669        0.15974996509373
C            4.39273406535541        0.89096599103741       -0.90824539497069
C            3.40733133296770        1.43470201011541       -1.72006324282894
C            2.06338754606457        1.16230058199291       -1.46089640653597
C            1.70307203572602        0.33312328279069       -0.38763445998810
C            2.87451798788962       -0.82216272567993        2.75178865629017
C            3.60325461602762       -2.08559830103503        3.16838880904860
C            1.65219309781388       -0.47569390288458        3.64073433855458
C            2.03699073900041       -0.45488901195392        5.10456400384287
C            2.83107612146558        0.58342633331930        5.56510753606299
C            3.24772414302486        0.61059273708190        6.88577146009544
C            2.86840733108848       -0.39881743828856        7.76344640565735
C            2.06327625737232       -1.43244362434726        7.31067960713807
C            1.64592191231846       -1.45593348494039        5.98845277173502
C            0.94125218419219        0.79897334713591        3.20993396267492
C            1.59557916297427        1.84500385986605        2.57542660521506
C            0.90004912939385        2.98526676136383        2.19888271078585
C           -0.45839510389555        3.09509516919134        2.45674888671039
C           -1.12165631368663        2.05417944081277        3.09605187784269
C           -0.42880168015210        0.91162116109995        3.46274360933401
C            1.19960463700712        1.95180589104383       -3.57692957792033
C            1.37831231964854        3.44244993317870       -3.82516809009011
C           -0.11027650491310        1.39140205731505       -4.19627380314890
C           -0.13023231667041        1.64452897596089       -5.69794303021134
C           -0.99563456361107        2.58865971897453       -6.24519930771062
C           -0.97910851161512        2.84518102317280       -7.61095370680990
C           -0.09675411683403        2.16687840024416       -8.44099575928793
C            0.76505849200583        1.21928097030268       -7.90012376396029
C            0.74455509730525        0.95576996007872       -6.53774286551626
C           -0.25575444169561       -0.10386956002267       -3.89300017655756
C            0.82438365592741       -0.95135967387552       -3.64428297450772
C            0.61959360074050       -2.29796936042721       -3.39881227581309
C           -0.67611461114799       -2.81832534272492       -3.38847841022474
C           -1.76161531973824       -1.98013238174334       -3.63992640628174
C           -1.54916817380697       -0.63540159905396       -3.87240500039575
H            0.54718557470134       -1.58788226263870        2.51477572407301
H           -1.08157234271076        1.99685917182210       -2.65018888664866
H            4.82010063069096       -0.36258392665946        0.79261298204225
H            5.43615848761362        1.10895869376942       -1.11041145466296
H            3.67718148862765        2.08688288579624       -2.54388159901428
H            3.56853513914731        0.01832149725416        2.75658568152282
H            2.88677661617013       -2.90130917564132        3.20743932433335
H            4.05147059183604       -1.98251546881027        4.15355772066052
H            4.36456573162599       -2.34857250173096        2.43139374682963
H            3.10997202950984        1.38165270069442        4.88476286982882
H            3.86969817934214        1.42939831632673        7.23065009539640
H            3.19304358558664       -0.37242476801579        8.79849946727867
H            1.75454406676328       -2.22354221144806        7.98987172224735
H            1.02584431196804       -2.25972998045735        5.62860273348683
H            2.65528559195100        1.78189512684399        2.34832776052976
H            1.43112673761743        3.78725740518761        1.69520101370779
H           -0.99893716734773        3.98751241595862        2.15610111007834
H           -2.18470497176922        2.13225633841091        3.30438739770496
H           -0.94636933280206        0.08917204213361        3.94912227198565
H            2.06206061297106        1.40029616227386       -3.97331126765587
H            0.48288847468063        3.97690781970896       -3.50262159704722
H            1.54413499737471        3.63638662823047       -4.88609321508954
H            2.23302720247108        3.81481753129683       -3.25593109475505
H           -1.67935136069521        3.11655539448450       -5.58947577754335
H           -1.65957039518800        3.58235802027895       -8.02775459331386
H           -0.08331808448324        2.37041388295432       -9.50795747763254
H            1.45361409465212        0.67829116997326       -8.54296272652524
H            1.40628946390328        0.19909369576200       -6.12483668728947
H            1.84427341546081       -0.58606651277956       -3.62778714812913
H            1.47087093558256       -2.91579794447414       -3.12273529623403
H           -0.85176040203268       -3.84803759480910       -3.07502670763591
H           -2.77791095468837       -2.36169938637087       -3.54439962909316
H           -2.38849124134619        0.02593721680167       -4.05010622383752
S            0.00000000000000       -0.00000000000000        0.00000000000000
H            0.19979999999999       -1.39900000000001        0.32480000000000
123
 energy: -183.164119161048 gnorm: 0.082284058085 xtb: 6.6.1 (8d0f1dd)
C            0.42159999999999       -2.95230000000000        0.68550000000000
C           -0.82563407797153       -3.34335973903248       -0.10037130865175
C           -0.51293103919348       -4.73336499237987       -0.72578307067066
C            0.81353845457081       -4.81455226121783       -1.48222652635256
C            1.67710539291993       -3.00438420436463       -0.15010631344367
H           -1.32750354520162       -5.01883697529454       -1.39505127057778
H            0.79855355084219       -4.23254585599057       -2.39153354273575
H            1.02446686143147       -5.84138782723247       -1.78548949206765
H            1.62795096608031       -2.28993686065721       -0.98534075125099
H            2.54935704730792       -2.72972174400846        0.43437226231631
H           -0.46914517925745       -5.45692275409319        0.08629904584684
C           -1.13452006432282       -2.33458407620215       -1.17033745008514
H           -1.47773805961017       -1.37613506360233       -0.82073151110812
H           -1.92034990795878       -2.70990976964376       -1.79713518534130
H           -0.26996869986317       -2.14513675408328       -1.77786094289212
C           -2.13011447843175       -3.44240116200817        0.68096163155395
H           -2.91836686274734       -3.75060892987228       -0.00371180705655
H           -2.39941403133066       -2.45742394818378        1.05481715540019
H           -2.06966530999844       -4.15164209716240        1.49531953415309
C            0.53780435511773       -3.42508728451978        2.06247144806336
C            1.71199163036569       -4.04553950112367        2.52370570674155
C           -0.44462868584592       -3.13969172931342        3.06861235824402
C            1.89906317690492       -4.36807475346775        3.86893087218820
H            2.51410120910584       -4.24442106265255        1.82447326628439
C           -0.24426818726048       -3.44674600611110        4.40095003657054
H           -1.27876076473370       -2.49771330583101        2.81447817524858
C            0.94337772794456       -4.05121999600982        4.81249655999392
H            2.85296376208475       -4.78309567074346        4.18236718549737
H           -0.93734702233982       -3.06348277220126        5.14183085326121
H            1.13483236581458       -4.23720802746061        5.86209533047372
S            3.43649543009395       -4.73544521577384       -1.07362351716702
O            3.69572525799344       -4.38559442674658       -2.45670927969862
O            4.29315086738022       -4.17401497826558       -0.05258320718056
C            3.41818006431476       -6.51066050300963       -0.92906868926910
C            3.04337608965265       -7.09661657985393        0.26800342774093
C            3.80066437463254       -7.27401012334033       -2.01438030236647
C            3.06382914467087       -8.47576904793788        0.37377948112439
H            2.73395762884625       -6.47500854330710        1.09510898814194
C            3.82054618074199       -8.65489220014743       -1.89654901899559
H            4.07460670048569       -6.77300010418233       -2.93267142665966
C            3.45766607318265       -9.27350286268108       -0.70298120887431
H            2.77316667827055       -8.94304263347460        1.30407520545236
H            4.12456877952288       -9.25478933195240       -2.74235499724592
C            3.48928793292639      -10.76662710181144       -0.56401319931264
H            4.25543389342842      -11.06386669245022        0.15238217202042
H            3.70608311849158      -11.24749542912117       -1.51455313228462
H            2.53488965726753      -11.13911853112348       -0.19459127887741
N            1.88145296539575       -4.35878244586567       -0.61998880085697
O            2.32608495490013       -0.96895641907193        1.46607816519266
O            0.74397569377902       -1.45046888296592        3.46917917784051
O            1.03927082488068        1.69259906813090       -2.17694523480378
O           -1.19311626568621        2.09205003572642       -3.60584456018850
C            2.71892625707071       -0.17386788518609        0.43470898160770
C            4.05565165008713        0.08018282326394        0.15742990148118
C            4.39142368205274        0.88946022031811       -0.91071543872805
C            3.40484099247314        1.43167103661188       -1.71522221751894
C            2.06241552508835        1.16064839378177       -1.45945136026263
C            1.70645969258183        0.34359181337535       -0.37845190444097
C            2.89808249645219       -0.78426303194903        2.76055696240411
C            3.62684984393313       -2.05150400058405        3.17628374575636
C            1.67406057118482       -0.43807428313301        3.65668392782841
C            2.05347322447795       -0.43322104416154        5.11454974296851
C            2.84399255643723        0.59882456267996        5.57766551719377
C            3.25419734830223        0.61781346528139        6.89626487558298
C            2.87351546809480       -0.39204194479811        7.76645289311505
C            2.06786050443831       -1.41991832237338        7.31067703849345
C            1.65538364856217       -1.43159382387103        5.99171064120459
C            0.95738679934708        0.82922091578159        3.22942820840427
C            1.60007101256788        1.86505909916956        2.57916428281444
C            0.89859801385106        2.99311318231825        2.19499604891297
C           -0.45605363939607        3.09676172222745        2.45611651336840
C           -1.11390386553873        2.05636227296176        3.09399175539871
C           -0.41508997916856        0.92462976504368        3.46866677807424
C            1.20055033436552        1.95260796808439       -3.57330587110304
C            1.37737423947565        3.44593601479160       -3.82486309924991
C           -0.11208768834604        1.39629762373364       -4.19818951171069
C           -0.12792628788484        1.64533275458271       -5.69930055590737
C           -0.99195321779509        2.58635197874487       -6.24681923418870
C           -0.97675719909743        2.84257004176446       -7.60838078566380
C           -0.09693020662387        2.16530667975704       -8.43661243581580
C            0.76161755848882        1.21955037276524       -7.89709342854673
C            0.74267231767768        0.95634770086675       -6.53764048638158
C           -0.25575464542275       -0.09859973537762       -3.91586112963479
C            0.82259290170095       -0.94221919790510       -3.67762296488151
C            0.62049109576441       -2.29251152258845       -3.47170181396636
C           -0.66771983023707       -2.82066951516363       -3.50534100949510
C           -1.75398704163227       -1.97812815635757       -3.70378765444488
C           -1.54414882814091       -0.63017366235252       -3.89929158693745
H            0.56954586426265       -1.53533570144818        2.52076109357685
H           -1.08337278622562        1.99915945636829       -2.64988385723548
H            4.81692553353737       -0.35790061074775        0.78682821562298
H            5.43033443105104        1.10634649664482       -1.11274417864279
H            3.67483032764396        2.07897730121818       -2.53721729694428
H            3.59656691283114        0.04709946788244        2.75042108000313
H            2.91006999091455       -2.85342801102880        3.21640380344464
H            4.07145800920095       -1.95642414712423        4.15744039644513
H            4.37523136850067       -2.32787364845322        2.43563727379524
H            3.12172480038066        1.38792157792175        4.89516681727363
H            3.87451276596554        1.43067982903252        7.24028977779373
H            3.19704345532729       -0.37076280436993        8.79681661052760
H            1.75812434844647       -2.21228950831167        7.98174362943792
H            1.03453447763287       -2.22410544661806        5.63181765851978
H            2.65405240906166        1.79634318655850        2.35076448206585
H            1.42610239498223        3.79100798284953        1.69192332781427
H           -0.99643043959107        3.98426214156833        2.15804101718858
H           -2.17373631930790        2.13023158506979        3.30031749392202
H           -0.93180445406414        0.10226276640315        3.94781869652443
H            2.06162812916528        1.40614399074428       -3.97221394416620
H            0.48481107213453        3.97702006797352       -3.50403658475489
H            1.54281534714861        3.63206037663590       -4.88262030887078
H            2.22894200440067        3.81609360710203       -3.25765992929969
H           -1.67311564676152        3.11304890306901       -5.59476546889978
H           -1.65410246704211        3.57738426923542       -8.02326142765424
H           -0.08250678082222        2.36900492077776       -9.49920541539382
H            1.44812664508627        0.68168317978882       -8.53766194759907
H            1.40327503164426        0.20472717778489       -6.12679633108024
H            1.83933457943246       -0.58028081624628       -3.63066453724569
H            1.47370141611544       -2.89634493984228       -3.18180253677169
H           -0.84926037801682       -3.83588003086802       -3.16641922948638
H           -2.76398544681479       -2.35839810426784       -3.58981424651363
H           -2.38349398029283        0.03194813087428       -4.04912407943502
S           -0.00000000000000       -0.00000000000000        0.00000000000000
H            0.19979999999997       -1.39900000000002        0.32480000000000
123
 energy: -183.204805921820 gnorm: 0.058309104176 xtb: 6.6.1 (8d0f1dd)
C            0.42159999999999       -2.95230000000000        0.68550000000000
C           -0.83530480399574       -3.35566383730411       -0.08356719862494
C           -0.51812527281335       -4.74603243452206       -0.70879278721493
C            0.81094529901777       -4.83500631429921       -1.46152613774520
C            1.67541068362331       -3.02168158611785       -0.15028925872214
H           -1.32776415830713       -5.02469108271619       -1.38441761923824
H            0.79929766142931       -4.25595342962156       -2.37618355330282
H            1.02347709504456       -5.86604286183393       -1.75194383713400
H            1.62906503794827       -2.31680937763993       -0.99420988364459
H            2.55416071510173       -2.75287248294496        0.42721015606755
H           -0.47970967997680       -5.46806880526151        0.10400979320746