123
 energy: -182.722694309888 gnorm: 0.378058911689 xtb: 6.6.1 (8d0f1dd)
C            0.42160000000000       -2.95230000000000        0.68550000000000
C           -0.04760000000000       -3.34710000000000       -0.72640000000000
C           -0.76850000000000       -4.71310000000000       -0.55080000000000
C           -1.87390000000000       -4.69860000000000        0.49970000000000
C           -0.72280000000000       -2.88680000000000        1.67130000000000
H           -1.18790000000000       -5.01780000000000       -1.52300000000000
H           -2.72120000000000       -4.05760000000000        0.19500000000000
H           -2.26610000000000       -5.71670000000000        0.63940000000000
H           -1.48790000000000       -2.15730000000000        1.34930000000000
H           -0.36920000000000       -2.57820000000000        2.65850000000000
H           -0.01930000000000       -5.46550000000000       -0.25590000000000
C           -1.02810000000000       -2.31590000000000       -1.31640000000000
H           -0.50940000000000       -1.37160000000000       -1.53870000000000
H           -1.42420000000000       -2.69680000000000       -2.26940000000000
H           -1.88330000000000       -2.09460000000000       -0.66570000000000
C            1.07460000000000       -3.52340000000000       -1.74710000000000
H            0.64250000000000       -3.85590000000000       -2.70400000000000
H            1.57610000000000       -2.56170000000000       -1.92950000000000
H            1.82580000000000       -4.26150000000000       -1.43300000000000
C            1.72160000000000       -3.35670000000000        1.25170000000000
C            1.78890000000000       -3.94670000000000        2.53590000000000
C            2.94600000000000       -3.09110000000000        0.59920000000000
C            3.00940000000000       -4.29830000000000        3.10340000000000
H            0.87320000000000       -4.14360000000000        3.09500000000000
C            4.16400000000000       -3.43040000000000        1.17820000000000
H            2.94710000000000       -2.55880000000000       -0.35230000000000
C            4.20460000000000       -4.05020000000000        2.42690000000000
H            3.02390000000000       -4.77050000000000        4.08780000000000
H            5.09360000000000       -3.20390000000000        0.65370000000000
H            5.16250000000000       -4.32140000000000        2.87350000000000
S           -2.18120000000000       -4.54890000000000        3.14700000000000
O           -3.57680000000000       -4.16830000000000        2.99440000000000
O           -1.39380000000000       -3.99120000000000        4.23960000000000
C           -2.10500000000000       -6.32270000000000        3.20950000000000
C           -0.86490000000000       -6.96380000000000        3.20970000000000
C           -3.29350000000000       -7.03630000000000        3.30350000000000
C           -0.82950000000000       -8.34860000000000        3.30350000000000
H            0.05430000000000       -6.38140000000000        3.12130000000000
C           -3.23670000000000       -8.42670000000000        3.40180000000000
H           -4.24260000000000       -6.49870000000000        3.29500000000000
C           -2.01190000000000       -9.10000000000000        3.40460000000000
H            0.13350000000000       -8.86360000000000        3.29830000000000
H           -4.16400000000000       -8.99800000000000        3.47550000000000
C           -1.94580000000000      -10.59900000000000        3.52020000000000
H           -1.48060000000000      -10.89330000000000        4.47270000000000
H           -2.94560000000000      -11.04850000000000        3.47670000000000
H           -1.33740000000000      -11.02860000000000        2.71170000000000
N           -1.30490000000000       -4.23420000000000        1.76140000000000
O            2.33270000000000       -1.02590000000000        1.42930000000000
O            0.71240000000000       -1.60230000000000        3.46320000000000
O            1.05190000000000        1.69660000000000       -2.18530000000000
O           -1.18420000000000        2.08850000000000       -3.60970000000000
C            2.71020000000000       -0.20850000000000        0.41920000000000
C            4.05640000000000        0.07430000000000        0.16560000000000
C            4.39420000000000        0.89270000000000       -0.90680000000000
C            3.40810000000000        1.43800000000000       -1.72660000000000
C            2.06250000000000        1.16600000000000       -1.46080000000000
C            1.69890000000000        0.32440000000000       -0.39440000000000
C            2.85570000000000       -0.84780000000000        2.74600000000000
C            3.57620000000000       -2.11550000000000        3.16300000000000
C            1.61610000000000       -0.53500000000000        3.62580000000000
C            2.02250000000000       -0.47390000000000        5.09290000000000
C            2.82410000000000        0.57560000000000        5.55570000000000
C            3.24790000000000        0.60970000000000        6.88180000000000
C            2.86620000000000       -0.40110000000000        7.76470000000000
C            2.05890000000000       -1.44190000000000        7.31070000000000
C            1.64000000000000       -1.48210000000000        5.98020000000000
C            0.93470000000000        0.77510000000000        3.20290000000000
C            1.59750000000000        1.83460000000000        2.57610000000000
C            0.90280000000000        2.98540000000000        2.19890000000000
C           -0.46030000000000        3.09810000000000        2.45470000000000
C           -1.12640000000000        2.05420000000000        3.09740000000000
C           -0.43480000000000        0.90470000000000        3.46550000000000
C            1.19790000000000        1.95320000000000       -3.57910000000000
C            1.37910000000000        3.43990000000000       -3.82420000000000
C           -0.10810000000000        1.39020000000000       -4.19270000000000
C           -0.13290000000000        1.64360000000000       -5.69420000000000
C           -0.99990000000000        2.59150000000000       -6.24170000000000
C           -0.98170000000000        2.84880000000000       -7.61320000000000
C           -0.09650000000000        2.16820000000000       -8.44620000000000
C            0.76940000000000        1.21840000000000       -7.90300000000000
C            0.74750000000000        0.95460000000000       -6.53580000000000
C           -0.25600000000000       -0.10840000000000       -3.88960000000000
C            0.82270000000000       -0.95960000000000       -3.62390000000000
C            0.60810000000000       -2.30250000000000       -3.31060000000000
C           -0.68560000000000       -2.81640000000000       -3.26760000000000
C           -1.76620000000000       -1.97920000000000       -3.54600000000000
C           -1.55210000000000       -0.63730000000000       -3.85230000000000
H            0.51450000000000       -1.64400000000000        2.51420000000000
H           -1.08060000000000        1.99600000000000       -2.65060000000000
H            4.82570000000000       -0.36770000000000        0.79960000000000
H            5.44320000000000        1.11070000000000       -1.11100000000000
H            3.67880000000000        2.09520000000000       -2.55270000000000
H            3.55300000000000        0.00370000000000        2.75960000000000
H            2.85890000000000       -2.94580000000000        3.20500000000000
H            4.03860000000000       -1.99590000000000        4.15120000000000
H            4.35620000000000       -2.35770000000000        2.42850000000000
H            3.10620000000000        1.38390000000000        4.87700000000000
H            3.87170000000000        1.43440000000000        7.23000000000000
H            3.19330000000000       -0.37270000000000        8.80510000000000
H            1.75090000000000       -2.23250000000000        7.99710000000000
H            1.01180000000000       -2.29370000000000        5.61520000000000
H            2.66250000000000        1.77550000000000        2.34630000000000
H            1.43550000000000        3.79170000000000        1.69220000000000
H           -1.00340000000000        3.99500000000000        2.15310000000000
H           -2.19440000000000        2.13320000000000        3.30650000000000
H           -0.95350000000000        0.07780000000000        3.95180000000000
H            2.06200000000000        1.39640000000000       -3.97290000000000
H            0.47860000000000        3.97810000000000       -3.50060000000000
H            1.54530000000000        3.63900000000000       -4.89100000000000
H            2.23860000000000        3.81510000000000       -3.25270000000000
H           -1.68630000000000        3.12120000000000       -5.58230000000000
H           -1.66580000000000        3.58850000000000       -8.03210000000000
H           -0.08370000000000        2.37190000000000       -9.51800000000000
H            1.45970000000000        0.67340000000000       -8.54870000000000
H            1.41120000000000        0.19190000000000       -6.12140000000000
H            1.84820000000000       -0.58670000000000       -3.62670000000000
H            1.46130000000000       -2.94400000000000       -3.08560000000000
H           -0.85200000000000       -3.86420000000000       -3.01410000000000
H           -2.78380000000000       -2.37170000000000       -3.51770000000000
H           -2.39370000000000        0.02690000000000       -4.05240000000000
S            0.00000000000000        0.00000000000000        0.00000000000000
H            0.19980000000000       -1.39900000000000        0.32480000000000
123
 energy: -182.927774906328 gnorm: 0.228069607840 xtb: 6.6.1 (8d0f1dd)
C            0.42160000000000       -2.95230000000000        0.68550000000000
C           -0.04758165231194       -3.36414201234213       -0.69820703974705
C           -0.77019530040976       -4.72207369995633       -0.55018310714572
C           -1.87535290868020       -4.69923111930842        0.50056553746965
C           -0.73595413814147       -2.90454539439767        1.65867966416111
H           -1.19148043387474       -5.02443192798836       -1.51548842167305
H           -2.71870622068754       -4.05779135114962        0.19656818018047
H           -2.26530861915898       -5.71317955666221        0.64414628261084
H           -1.49398355638409       -2.16569800037231        1.34940884320345
H           -0.41329128805302       -2.62455819706113        2.65362198059026
H           -0.02255971867964       -5.46539434130689       -0.25515792594864
C           -1.02558783744166       -2.32446561042070       -1.25705915870834
H           -0.52580317407224       -1.38873861788188       -1.52664053924651
H           -1.42089173635415       -2.69312893462681       -2.21478740122125
H           -1.88762110050258       -2.09335730338598       -0.64144963191660
C            1.09376126583066       -3.56518127203123       -1.68557688705831
H            0.65973917253428       -3.92707126581213       -2.61971115082275
H            1.57503099056720       -2.58792388988506       -1.83728831081264
H            1.84207787589363       -4.28478252196458       -1.39441654814571
C            1.70993303311910       -3.37792616089730        1.24193263098950
C            1.77678452909616       -3.99414705967200        2.50988687958888
C            2.94702833711031       -3.12211752565442        0.58811215405864
C            3.00764897576535       -4.35245193046766        3.07760680658097
H            0.87436889221174       -4.14998147041660        3.08840294859685
C            4.15727674597261       -3.48956217146403        1.14616296222728
H            2.95072921129168       -2.56731808679261       -0.34415013333980
C            4.20529922486527       -4.14490913393206        2.38593236772483
H            3.02501507384454       -4.77803005712731        4.07869223195892
H            5.08643399675042       -3.21030623594960        0.65108246720424
H            5.16044062489314       -4.33588546705219        2.86702664994556
S           -2.18148454630148       -4.55154785650847        3.14444108167782
O           -3.57385022839039       -4.16561383269662        2.99759132232071
O           -1.40108709956894       -3.99391451969276        4.23498746873981
C           -2.10505116694280       -6.32825321741719        3.21254078919829
C           -0.86958036030677       -6.96698940058119        3.20957135397682
C           -3.28924535206102       -7.04135525806344        3.30436728824363
C           -0.83219354832432       -8.34939459371609        3.30304382599204
H            0.04384088806196       -6.38480282301314        3.12300581951140
C           -3.23488787116547       -8.42774037554845        3.40104129047375
H           -4.23343435072089       -6.50287884508866        3.29557584470245
C           -2.01160540357170       -9.09922877340014        3.40469704373696
H            0.12677238735543       -8.86088984667572        3.29848502271465
H           -4.15885093075956       -8.99457592003283        3.47517941937236
C           -1.94644095468203      -10.59725121961131        3.51993099613315
H           -1.48290407260406      -10.88959589722922        4.46813923481904
H           -2.94178340174647      -11.04443138110818        3.47684849325478
H           -1.34023987572305      -11.02436648048989        2.71537009469514
N           -1.30987022024661       -4.24160529726836        1.75720911050520
O            2.32789995710734       -0.99573794385627        1.44230891237475
O            0.72520135610141       -1.58043997945690        3.47090480620974
O            1.04693024543679        1.69595699704451       -2.18217454338880
O           -1.18883684487307        2.09191098545941       -3.60699506976287
C            2.71383279619214       -0.19347407220627        0.42324199376522
C            4.05627522969774        0.07639340104116        0.16043472923238
C            4.39375017079786        0.89139167823552       -0.90835537668803
C            3.40847470899055        1.43552868956784       -1.72185775162638
C            2.06419815485888        1.16335359520747       -1.46176125778949
C            1.70299959874904        0.32846228039445       -0.39305330038216
C            2.85658809735618       -0.80387982792019        2.75426074569603
C            3.58154000435946       -2.03196146027471        3.20281653141170
C            1.62199120281220       -0.51391909065525        3.64105544489766
C            2.02719878657763       -0.46849744454456        5.10091717368178
C            2.82420524408366        0.57672364327479        5.56080497439219
C            3.24558042032749        0.60806552804783        6.88220731082910
C            2.86509041067169       -0.40121974185894        7.76099447352474
C            2.05993522465035       -1.43933035840774        7.30828737407756
C            1.64397055880174       -1.47834808899320        5.98192239337562
C            0.93407098965936        0.78351637106400        3.20780531013453
C            1.59396460879150        1.83678043936537        2.57744638912645
C            0.90096542099275        2.98227983366928        2.20055283889673
C           -0.45851187030404        3.09499187539344        2.45639352731630
C           -1.12315355495452        2.05419925453004        3.09642220128928
C           -0.43317122830968        0.90845362969902        3.46387367111612
C            1.19977605097036        1.95238582695934       -3.57739209178248
C            1.37883656442517        3.44263822220366       -3.82536347930767
C           -0.11094255515053        1.39488783003821       -4.19619858007962
C           -0.13095306703152        1.64479746953717       -5.69800449132222
C           -0.99674132069819        2.58939410950897       -6.24499445792653
C           -0.97974870413518        2.84599845194238       -7.61164359082129
C           -0.09659700198644        2.16714778423742       -8.44212629223909
C            0.76606324287512        1.21923413769162       -7.90068632656123
C            0.74516924060575        0.95558443705572       -6.53751394434565
C           -0.26018632153244       -0.09363785230823       -3.88737666807562
C            0.81380718631874       -0.93300925018743       -3.65079486819923
C            0.60843171131930       -2.28111602528424       -3.43690117592945
C           -0.69015680657176       -2.80841795327020       -3.34035708337367
C           -1.77948078248544       -1.96648039886071       -3.62458082062855
C           -1.55878558084986       -0.63398599654377       -3.86905035883489
H            0.54827114415644       -1.61354316620365        2.51929944862141
H           -1.08120340757820        1.99694735643512       -2.65018157709628
H            4.82058113250090       -0.36209595670223        0.79501502094758
H            5.43773364640368        1.10968095323727       -1.11040312136949
H            3.67767960866243        2.08928111126010       -2.54568451876168
H            3.55660377811973        0.02782525184867        2.75872286877804
H            2.88345057687938       -2.87748520377507        3.22088466259916
H            4.04415481413442       -1.96820938677456        4.17648855323445
H            4.34223974694101       -2.30521120721456        2.47238223206200
H            3.10561191021212        1.37838800982146        4.88219036529629
H            3.86821456140434        1.42868008520975        7.22834430948155
H            3.19128763722376       -0.37330749051170        8.79756931266420
H            1.75289735021907       -2.22735900522436        7.99168335996384
H            1.01612998283024       -2.28682739666874        5.61871642509509
H            2.65512056359912        1.77736628107150        2.34904913504471
H            1.43211421365092        3.78586782087410        1.69581235356749
H           -0.99948178195575        3.98859987882032        2.15549411933984
H           -2.18716399597062        2.13256350917613        3.30495240348195
H           -0.95028230315537        0.08408239640743        3.94922973304876
H            2.06171599372821        1.39955761918360       -3.97328562285335
H            0.48250348232258        3.97699009829876       -3.50222701311375
H            1.54430779568117        3.63731757833685       -4.88691601592599
H            2.23396379496802        3.81479581268052       -3.25527167986565
H           -1.68099818738218        3.11759095346247       -5.58819314124743
H           -1.66100847626518        3.58363675090698       -8.02884931286323
H           -0.08354723767847        2.37076532868027       -9.51008434152778
H            1.45479139194700        0.67749387238180       -8.54418375422943
H            1.40675577639460        0.19797380273491       -6.12419268285343
H            1.84056107742368       -0.58155099183703       -3.63395013147052
H            1.46025082102018       -2.89662071495358       -3.22432797379296
H           -0.85688940122164       -3.86120891333548       -3.07855529006771
H           -2.78792153095829       -2.35998998203924       -3.53185784576119
H           -2.39383754217509        0.02761438627314       -4.05161835658311
S            0.00000000000000       -0.00000000000000       -0.00000000000001
H            0.19980000000000       -1.39900000000000        0.32480000000000
123
 energy: -183.047764602747 gnorm: 0.143843617227 xtb: 6.6.1 (8d0f1dd)
C            0.42160000000000       -2.95230000000000        0.68550000000000
C           -0.05050017877783       -3.37308949766167       -0.67508362902141
C           -0.77189520905419       -4.72972585967970       -0.54056716913336
C           -1.88063630437610       -4.70421882727828        0.50351285512617
C           -0.74715763961324       -2.92043953158931        1.65442164538333
H           -1.19242394135453       -5.02500304242337       -1.50338351581599
H           -2.71628789278726       -4.05907801417822        0.19724115218977
H           -2.26855436021475       -5.71392094178993        0.65068256599399
H           -1.50064460565174       -2.17845817309597        1.34845664189513
H           -0.45348051040277       -2.66524315304673        2.65968234851812
H           -0.02684644574054       -5.47016403971340       -0.25122369295681
C           -1.03676276199113       -2.34229135728255       -1.21064225187101
H           -0.54178573367229       -1.42096043896148       -1.52212372411726
H           -1.42066921547347       -2.70381349945731       -2.14616011715393
H           -1.88718374335211       -2.09281438675875       -0.60045192407778
C            1.10551121736210       -3.59292035310700       -1.63564576013000
H            0.69195597433085       -3.97738094746517       -2.55348324991362
H            1.57771003528271       -2.62269455825158       -1.79224917236754
H            1.85066923350454       -4.30375334608355       -1.34395587682640
C            1.70140292184458       -3.39916211603353        1.23160420940316
C            1.76829660451659       -4.03694105560831        2.48446076415548
C            2.94446694885860       -3.15457911012476        0.57774215607504
C            3.00263149190743       -4.41300363672539        3.04316897389689
H            0.87736309152937       -4.16072917258170        3.08084617361095
C            4.14767106874668       -3.53635164531384        1.12459982525620
H            2.95327887695524       -2.57714379713017       -0.33466037322525
C            4.19812754839578       -4.21565640077163        2.35428429216859
H            3.02311639027184       -4.79308541438150        4.06075380970424
H            5.07517656089179       -3.22927910479692        0.64679742374211
H            5.14944827393968       -4.35832565586763        2.85493460399371
S           -2.18149696645974       -4.55523653979580        3.14112071152266
O           -3.56835809923185       -4.16020985276019        3.00145652156955
O           -1.41068105741732       -3.99703832623951        4.22889369672696
C           -2.10532094591320       -6.33409413731708        3.21481645722319
C           -0.87442346716383       -6.97060251401579        3.20957583188111
C           -3.28571832960072       -7.04708289617685        3.30528122906326
C           -0.83512193171645       -8.35118669503800        3.30267706192100
H            0.03289338502238       -6.38817292679455        3.12521660744308
C           -3.23360336674793       -8.42981445584812        3.40075824006971
H           -4.22435056754838       -6.50732160771267        3.29648299064837
C           -2.01148131909254       -9.09927918244596        3.40454759287649
H            0.12019707236192       -8.85903088854159        3.29848306074352
H           -4.15460437895957       -8.99204150138878        3.47475831592440
C           -1.94732978500946      -10.59535216904345        3.51958764483566
H           -1.48499004096306      -10.88457427199072        4.46451173820991
H           -2.93956850951738      -11.03925130290851        3.47678199615005
H           -1.34266673914123      -11.01911396419876        2.71791687463255
N           -1.31277667100898       -4.24945149819772        1.75096388750830
O            2.32161880909345       -0.96645708998408        1.46120585927408
O            0.73924737039447       -1.56033678366637        3.47665098775024
O            1.04150173474365        1.69471686045047       -2.17858485959207
O           -1.19421926031818        2.10239042088753       -3.60437672081133
C            2.71735688542101       -0.17799543820177        0.43108597295293
C            4.05595588345249        0.07908607587469        0.15753272192062
C            4.39289397963775        0.89014223532104       -0.91047713874672
C            3.40782108093463        1.43282877822560       -1.71793255597126
C            2.06450972588390        1.16082841978743       -1.46308826642694
C            1.70768482653231        0.33504040131512       -0.38906388537470
C            2.86377751086315       -0.76531220121232        2.76718216943536
C            3.59458948328946       -1.97264409321210        3.23426527749900
C            1.62795813547900       -0.49025020328240        3.65606470768168
C            2.03085851098200       -0.45991191110816        5.10976758737098
C            2.82587390038353        0.58026432059502        5.56737035550827
C            3.24499272480670        0.60778496498536        6.88504568074374
C            2.86463343454747       -0.40089380563208        7.75854034593219
C            2.06148588393943       -1.43668332549119        7.30595943288500
C            1.64711183419473       -1.47279357366385        5.98339416239817
C            0.93395381065946        0.79649853941332        3.21876544872408
C            1.59105789168157        1.84189261047519        2.58103266628834
C            0.89879631974831        2.98076237931846        2.20124713691896
C           -0.45748630132831        3.09294385671849        2.45760921617967
C           -1.12109511192327        2.05483238586062        3.09493734573612
C           -0.43177128816134        0.91388493510395        3.46491081229344
C            1.20002355122242        1.95364093127899       -3.57496673096147
C            1.37876052279413        3.44646973335444       -3.82535223734618
C           -0.11561872694287        1.40133282331620       -4.19738607450103
C           -0.12901027121726        1.64665192425624       -5.69926269140903
C           -0.99357674037410        2.58770970450429       -6.24733145683124
C           -0.97793962861008        2.84359281965729       -7.60992669967881
C           -0.09677809907074        2.16595261859182       -8.43827014065234
C            0.76267305081664        1.21993982800118       -7.89782160090438
C            0.74311380761955        0.95687326675202       -6.53740955299281
C           -0.26522269477167       -0.08164556020040       -3.90311916921670
C            0.80274134794937       -0.91747005493732       -3.68507188930349
C            0.59189568042833       -2.26921673530420       -3.53953812973115
C           -0.69332500559335       -2.80584651716102       -3.45125216139031
C           -1.78392281711230       -1.95873261681033       -3.70361824920871
C           -1.56212178356594       -0.62635193414287       -3.89211926402979
H            0.58140475557241       -1.58319375764638        2.52489640062554
H           -1.08371000731639        1.99944304704524       -2.64984686894887
H            4.81609233979114       -0.35652143586987        0.79118782993755
H            5.43239053933631        1.10827343495896       -1.11121861601119
H            3.67625061540799        2.08310185586921       -2.53920820340280
H            3.55935296108331        0.06165925900812        2.75882807622217
H            2.90235914790613       -2.80482581639792        3.25317565259621
H            4.05032595887356       -1.92871523270807        4.20231917991582
H            4.34700532655346       -2.25143928150515        2.50694708370603
H            3.10621951735776        1.37469928180458        4.88817836644801
H            3.86627228755830        1.42396304495725        7.22928450570502
H            3.18963017205644       -0.37426585060954        8.79104405791908
H            1.75510878142658       -2.22241736925482        7.98590829086860
H            1.02075775483690       -2.27840005574763        5.62191508215107
H            2.64771805063573        1.78192521898081        2.35329990815989
H            1.42848942307141        3.78101105276114        1.69852650418005
H           -0.99595791728214        3.98321177044009        2.15808803649170
H           -2.18088567882466        2.13210375355786        3.30284185588721
H           -0.94690459405058        0.09125165993639        3.94756547111265
H            2.05967343928647        1.40435712316959       -3.97318793749997
H            0.48514519184610        3.97687296149847       -3.50359009424579
H            1.54316593918364        3.63444200886581       -4.88341740956473
H            2.23053797777807        3.81599093945489       -3.25700674223544
H           -1.67576290117793        3.11433168620304       -5.59376167665247
H           -1.65630692226105        3.57898914398779       -8.02548189351235
H           -0.08307871383181        2.36961881290107       -9.50220552630655
H            1.44965551438526        0.68123443059093       -8.53929715722874
H            1.40268038466449        0.20351643340579       -6.12594655884610
H            1.83063630650741       -0.57932371615562       -3.64118754706349
H            1.45195163043710       -2.86077329502709       -3.34277364797705
H           -0.85844576453363       -3.85314306606936       -3.17437358584622
H           -2.78722165780305       -2.35086228677900       -3.55784019037963
H           -2.39520101706740        0.03576237535812       -4.05281914112827
S            0.00000000000001       -0.00000000000001       -0.00000000000003
H            0.19980000000001       -1.39900000000001        0.32480000000000
123
 energy: -183.123295603643 gnorm: 0.096040656007 xtb: 6.6.1 (8d0f1dd)
C            0.42160000000000       -2.95230000000000        0.68550000000000
C           -0.05564051816921       -3.38706858981765       -0.65874290460072
C           -0.77654758068323       -4.74472266118219       -0.53058546090457
C           -1.88819546777771       -4.71479295556809        0.50674262599722
C           -0.75420943615149       -2.93622286949345        1.65624946272167
H           -1.19474737846966       -5.02896377256807       -1.49576491132218
H           -2.71588009368846       -4.06285980583569        0.19689918508150
H           -2.27805461566471       -5.72050158393415        0.65861179411834
H           -1.50862492536197       -2.19582027634669        1.34993703455508
H           -0.48566862167209       -2.70010331643216        2.67298924764937
H           -0.03229261920778       -5.48378116413946       -0.24229542928072